
Running Job 1 of 1 /global/homes/e/ewcss/data/with_water/243_2674637/rct_1.in
qchem /global/homes/e/ewcss/data/with_water/243_2674637/rct_1.in_211632.0 /tmp/qchem211632/ 1
srun -n 1 /global/common/cori/software/qchem/5.1beta/exe/qcprog.exe /global/homes/e/ewcss/data/with_water/243_2674637/rct_1.in_211632.0 /tmp/qchem211632/

Process 0 of 1 is on nid02526 - thread support 0
initial socket setup ...start
initial socket setup ...done 
now start server 0 ... 
Check license passed

                  Welcome to Q-Chem
     A Quantum Leap Into The Future Of Chemistry


 Q-Chem 5.1, Q-Chem, Inc., Pleasanton, CA (2018)

 Yihan Shao,  Zhengting Gan,  E. Epifanovsky,  A. T. B. Gilbert,  M. Wormit,  
 J. Kussmann,  A. W. Lange,  A. Behn,  Jia Deng,  Xintian Feng,  D. Ghosh,  
 M. Goldey,  P. R. Horn,  L. D. Jacobson,  I. Kaliman,  T. Kus,  A. Landau,  
 Jie Liu,  E. I. Proynov,  R. M. Richard,  R. P. Steele,  E. J. Sundstrom,  
 H. L. Woodcock III,  P. M. Zimmerman,  D. Zuev,  B. Albrecht,  E. Alguire,  
 S. A. Baeppler,  D. Barton,  Z. Benda,  Y. A. Bernard,  E. J. Berquist,  
 K. B. Bravaya,  H. Burton,  D. Casanova,  Chun-Min Chang,  Yunqing Chen,  
 A. Chien,  K. D. Closser,  M. P. Coons,  S. Coriani,  S. Dasgupta,  
 A. L. Dempwolff,  M. Diedenhofen,  Hainam Do,  R. G. Edgar,  Po-Tung Fang,  
 S. Faraji,  S. Fatehi,  Qingguo Feng,  K. D. Fenk,  J. Fosso-Tande,  
 Qinghui Ge,  A. Ghysels,  G. Gidofalvi,  J. Gomes,  J. Gonthier,  A. Gunina,  
 M. W. D. Hanson-Heine,  P. H. P. Harbach,  A. W. Hauser,  J. E. Herr,  
 E. G. Hohenstein,  Z. C. Holden,  Kerwin Hui,  T.-C. Jagau,  Hyunjun Ji,  
 B. Kaduk,  K. Khistyaev,  Jaehoon Kim,  P. Klunzinger,  K. Koh,  
 D. Kosenkov,  L. Koulias,  T. Kowalczyk,  C. M. Krauter,  A. Kunitsa,  
 Ka Un Lao,  A. Laurent,  K. V. Lawler,  Joonho Lee,  D. Lefrancois,  
 S. Lehtola,  D. S. Levine,  Yi-Pei Li,  You-Sheng Lin,  Fenglai Liu,  
 E. Livshits,  A. Luenser,  P. Manohar,  E. Mansoor,  S. F. Manzer,  
 Shan-Ping Mao,  Yuezhi Mao,  N. Mardirossian,  A. V. Marenich,  
 T. Markovich,  L. A. Martinez-Martinez,  S. A. Maurer,  N. J. Mayhall,  
 S. C. McKenzie,  J.-M. Mewes,  A. F. Morrison,  J. W. Mullinax,  K. Nanda,  
 T. S. Nguyen-Beck,  R. Olivares-Amaya,  J. A. Parkhill,  T. M. Perrine,  
 F. Plasser,  P. Pokhilko,  S. Prager,  A. Prociuk,  E. Ramos,  D. R. Rehn,  
 F. Rob,  M. Schneider,  N. Sergueev,  S. M. Sharada,  S. Sharma,  
 D. W. Small,  T. Stauch,  T. Stein,  Yu-Chuan Su,  A. J. W. Thom,  
 A. Tkatchenko,  T. Tsuchimochi,  N. M. Tubman,  L. Vogt,  M. L. Vidal,  
 O. Vydrov,  M. A. Watson,  J. Wenzel,  M. de Wergifosse,  T. A. Wesolowski,  
 A. White,  J. Witte,  A. Yamada,  Jun Yang,  K. Yao,  S. Yeganeh,  
 S. R. Yost,  Zhi-Qiang You,  A. Zech,  Igor Ying Zhang,  Xing Zhang,  
 Yan Zhao,  Ying Zhu,  B. R. Brooks,  G. K. L. Chan,  C. J. Cramer,  
 M. S. Gordon,  W. J. Hehre,  A. Klamt,  M. W. Schmidt,  C. D. Sherrill,  
 D. G. Truhlar,  A. Aspuru-Guzik,  R. Baer,  A. T. Bell,  N. A. Besley,  
 Jeng-Da Chai,  R. A. DiStasio Jr.,  A. Dreuw,  B. D. Dunietz,  
 T. R. Furlani,  Chao-Ping Hsu,  Yousung Jung,  Jing Kong,  D. S. Lambrecht,  
 WanZhen Liang,  C. Ochsenfeld,  V. A. Rassolov,  L. V. Slipchenko,  
 J. E. Subotnik,  T. Van Voorhis,  J. M. Herbert,  A. I. Krylov,  
 P. M. W. Gill,  M. Head-Gordon

 Contributors to earlier versions of Q-Chem not listed above: 
 R. D. Adamson,  B. Austin,  J. Baker,  G. J. O. Beran,  K. Brandhorst,  
 S. T. Brown,  E. F. C. Byrd,  A. K. Chakraborty,  C.-L. Cheng,  
 Siu Hung Chien,  D. M. Chipman,  D. L. Crittenden,  H. Dachsel,  
 R. J. Doerksen,  A. D. Dutoi,  L. Fusti-Molnar,  W. A. Goddard III,  
 A. Golubeva-Zadorozhnaya,  S. R. Gwaltney,  G. Hawkins,  A. Heyden,  
 S. Hirata,  G. Kedziora,  F. J. Keil,  C. Kelley,  Jihan Kim,  R. A. King,  
 R. Z. Khaliullin,  P. P. Korambath,  W. Kurlancheek,  A. M. Lee,  M. S. Lee,  
 S. V. Levchenko,  Ching Yeh Lin,  D. Liotard,  R. C. Lochan,  I. Lotan,  
 P. E. Maslen,  N. Nair,  D. P. O'Neill,  D. Neuhauser,  E. Neuscamman,  
 C. M. Oana,  R. Olson,  B. Peters,  R. Peverati,  P. A. Pieniazek,  
 Y. M. Rhee,  J. Ritchie,  M. A. Rohrdanz,  E. Rosta,  N. J. Russ,  
 H. F. Schaefer III,  N. E. Schultz,  N. Shenvi,  A. C. Simmonett,  A. Sodt,  
 D. Stuck,  K. S. Thanthiriwatte,  V. Vanovschi,  Tao Wang,  A. Warshel,  
 C. F. Williams,  Q. Wu,  X. Xu,  W. Zhang

 Please cite Q-Chem as follows:
 Y. Shao et al., Mol. Phys. 113, 184-215 (2015)
 DOI: 10.1080/00268976.2014.952696

 Q-Chem 5.1.0 for Intel X86 EM64T Linux

 Parts of Q-Chem use Armadillo 8.300.2 (Tropical Shenanigans).
 http://arma.sourceforge.net/

 Q-Chem begins on Fri Jul  6 10:03:13 2018  

Host: cori02
0

     Scratch files written to /tmp/qchem211632//
 Mar1918  _RNUM -1
 Parallel job on  1  processors
Processing $rem in /global/common/cori/software/qchem/5.1beta/config/preferences.
 MEM_TOTAL  2000 

Checking the input file for inconsistencies... 	...done.

--------------------------------------------------------------
User input:
--------------------------------------------------------------
$molecule
0 1
C      1.2086456594      0.0000023618      0.0000000000
C      0.2747861808     -0.0000035811     -1.1771999381
C      0.2747861808     -0.0000035811      1.1771999381
C     -0.9941447273     -0.0000007204     -0.7338254040
C     -0.9941447273     -0.0000007204      0.7338254040
H      1.8682158342     -0.8790894329      0.0000000000
H      1.8681921457      0.8791127858      0.0000000000
H      0.6023067980     -0.0000100561     -2.2099834487
H      0.6023067980     -0.0000100561      2.2099834487
H     -1.8888166634     -0.0000007743     -1.3458131664
H     -1.8888166634     -0.0000007743      1.3458131664
$end

$rem
job_type = freq
method = wb97x-d
basis = 6-31g*
max_scf_cycles = 200
gen_scfman = true
scf_algorithm = diis
geom_opt_max_cycles = 200
$end
--------------------------------------------------------------
 ----------------------------------------------------------------
             Standard Nuclear Orientation (Angstroms)
    I     Atom           X                Y                Z
 ----------------------------------------------------------------
    1      C       0.0000024024    -1.2146745581    -0.0000000000
    2      C      -0.0000028081    -0.2808150795    -1.1771999381
    3      C      -0.0000028081    -0.2808150795     1.1771999381
    4      C       0.0000010477     0.9881158286    -0.7338254040
    5      C       0.0000010477     0.9881158286     0.7338254040
    6      H      -0.8790899096    -1.8742440434    -0.0000000000
    7      H       0.8791123091    -1.8742217338    -0.0000000000
    8      H      -0.0000095400    -0.6083356967    -2.2099834487
    9      H      -0.0000095400    -0.6083356967     2.2099834487
   10      H       0.0000016955     1.8827877647    -1.3458131664
   11      H       0.0000016955     1.8827877647     1.3458131664
 ----------------------------------------------------------------
 Molecular Point Group                 Cs    NOp =  2
 Largest Abelian Subgroup              Cs    NOp =  2
 Nuclear Repulsion Energy =   156.8067309507 hartrees
 There are       18 alpha and       18 beta electrons
 Requested basis set is 6-31G(d)
 There are 32 shells and 87 basis functions

 Total QAlloc Memory Limit   2000 MB
 Mega-Array Size       188 MB
 MEM_STATIC part       192 MB

                       Distance Matrix (Angstroms)
             C (  1)   C (  2)   C (  3)   C (  4)   C (  5)   H (  6)
   C (  2)  1.502629
   C (  3)  1.502629  2.354400
   C (  4)  2.321806  1.344160  2.293949
   C (  5)  2.321806  2.293949  1.344160  1.467651
   H (  6)  1.099016  2.167397  2.167397  3.082921  3.082921
   H (  7)  1.099016  2.167392  2.167392  3.082907  3.082907  1.758202
   H (  8)  2.291653  1.083472  3.402981  2.174327  3.348831  2.694315
   H (  9)  2.291653  3.402981  1.083472  3.348831  2.174327  2.694315
   H ( 10)  3.377201  2.170163  3.323669  1.083959  2.263920  4.086478
   H ( 11)  3.377201  3.323669  2.170163  2.263920  1.083959  4.086478
             H (  7)   H (  8)   H (  9)   H ( 10)
   H (  8)  2.694318
   H (  9)  2.694318  4.419967
   H ( 10)  4.086462  2.636757  4.341588
   H ( 11)  4.086462  4.341588  2.636757  2.691626
 
 A cutoff of  1.0D-11 yielded    523 shell pairs
 There are      3958 function pairs
 
 -------------------------------------------------------
 OpenMP Integral Computing Module                       
 Release: version 1.0, May 2013, Q-Chem Inc. Pittsburgh 
 -------------------------------------------------------
 Integral Job Info:
 Integral job number is                      11
 Integral operator is                         1
 short-range coefficients              22203600
 long-range coefficients              100000000
 Omega coefficients                         200
 if combine SR and LR in K                    1
 Integral screening is                        0
 Integral computing path is                   2
 max size of driver memory is            800000
 size of driver memory is                593474
 size of scratch memory is              2428936
 max col of scratch BK array               1296
 max len of scratch array in speh3          155
 max len of scratch index in speh4           18
 max int batch size is                      520
 min int batch size is                       52
 fixed nKL is                                52
 max L of basis functions is                  2
 order of int derivative is                   0
 number of shells is                         32
 number of basis is                          87
 number of cartesian basis is                87
 number of contracted shell pairs           523
 number of primitive shell pairs           2238
 maxK2 (contraction) of shell pair           36
 max number of K2 of shell pair               1
 max number of CS2 of shell pair             60
 max number of PS2 of shell pair            282
 mem total for path MDJ                  520332
 -------------------------------------------------------
 Smallest overlap matrix eigenvalue = 1.64E-03
 Guess from superposition of atomic densities
 Warning:  Energy on first SCF cycle will be non-variational
 SAD guess density has 36.000000 electrons

 -----------------------------------------------------------------------
  General SCF calculation program by
  Eric Jon Sundstrom, Paul Horn, Yuezhi Mao, Dmitri Zuev, Alec White,
  David Stuck, Shaama M.S., Shane Yost, Joonho Lee, David Small,
  Daniel Levine, Susi Lehtola, Hugh Burton, Evgeny Epifanovsky
 -----------------------------------------------------------------------
 Exchange:     0.2220 Hartree-Fock + 1.0000 wB97X-D + LR-HF
 Correlation:  1.0000 wB97X-D
 Using SG-2 standard quadrature grid
 Dispersion:   Grimme D
 using 272 threads for integral computing
 -------------------------------------------------------
 OpenMP Integral computing Module                
 Release: version 1.0, May 2013, Q-Chem Inc. Pittsburgh 
 -------------------------------------------------------
 using 272 threads for integral computing
 -------------------------------------------------------
 OpenMP Integral computing Module                
 Release: version 1.0, May 2013, Q-Chem Inc. Pittsburgh 
 -------------------------------------------------------
 -------------------------------------------------------
 OpenMP BLAS3 based DFT computing Module                
 Release: version 1.0, May 2013, Q-Chem Inc. Pittsburgh 
 -------------------------------------------------------
 A restricted SCF calculation will be
 performed using DIIS
 SCF converges when DIIS error is below 1.0e-08
 ---------------------------------------
  Cycle       Energy         DIIS error
 ---------------------------------------
    1    -195.4301322936      8.51e-02  
    2    -193.9878181598      6.36e-03  
    3    -194.0123662229      4.45e-03  
    4    -194.0309841535      3.80e-04  
    5    -194.0311328690      2.08e-04  
    6    -194.0311705438      7.45e-05  
    7    -194.0311767349      1.12e-05  
    8    -194.0311771221      5.60e-06  
    9    -194.0311771807      1.13e-06  
   10    -194.0311771866      1.33e-07  
   11    -194.0311771867      1.98e-08  
   12    -194.0311771867      4.24e-09  Convergence criterion met
 ---------------------------------------
 SCF time:   CPU 2268.14s  wall 14.00s 
 SCF   energy in the final basis set =     -194.0311771867
 
 --------------------------------------------------------------
             Orbital Energies (a.u.) and Symmetries
 --------------------------------------------------------------
 
 Alpha MOs, Restricted
 -- Occupied --                  
-10.298 -10.290 -10.290 -10.289 -10.289  -0.951  -0.796  -0.795
  1 A'    2 A'    1 A"    3 A'    2 A"    4 A'    3 A"    5 A'                 
 -0.637  -0.615  -0.598  -0.518  -0.475  -0.450  -0.434  -0.434
  6 A'    4 A"    7 A'    8 A'    5 A"    9 A'   10 A'    6 A"                 
 -0.374  -0.289
 11 A'    7 A"                                                                 
 -- Virtual --                   
  0.064   0.169   0.197   0.231   0.257   0.261   0.263   0.264
 12 A'    8 A"   13 A'   14 A'    9 A"   15 A'   10 A"   16 A'                 
  0.285   0.320   0.422   0.438   0.532   0.638   0.639   0.669
 11 A"   17 A'   18 A'   12 A"   13 A"   19 A'   20 A'   21 A'                 
  0.674   0.691   0.703   0.717   0.746   0.755   0.780   0.823
 14 A"   15 A"   22 A'   16 A"   23 A'   24 A'   17 A"   25 A'                 
  0.833   0.904   0.951   0.958   0.959   0.978   1.016   1.023
 26 A'   18 A"   19 A"   27 A'   28 A'   20 A"   21 A"   29 A'                 
  1.033   1.132   1.238   1.261   1.365   1.470   1.486   1.546
 30 A'   31 A'   22 A"   23 A"   32 A'   24 A"   33 A'   34 A'                 
  1.546   1.568   1.627   1.780   1.930   1.965   2.031   2.084
 35 A'   25 A"   26 A"   36 A'   37 A'   27 A"   38 A'   39 A'                 
  2.119   2.141   2.186   2.255   2.333   2.373   2.386   2.478
 40 A'   28 A"   29 A"   41 A'   30 A"   42 A'   31 A"   43 A'                 
  2.582   2.595   2.679   2.727   2.802   2.903   3.041   3.097
 44 A'   32 A"   33 A"   34 A"   45 A'   46 A'   35 A"   36 A"                 
  4.203   4.262   4.281   4.569   4.591
 47 A'   37 A"   48 A'   38 A"   49 A'                                         
 
 Beta MOs, Restricted
 -- Occupied --                  
-10.298 -10.290 -10.290 -10.289 -10.289  -0.951  -0.796  -0.795
  1 A'    2 A'    1 A"    3 A'    2 A"    4 A'    3 A"    5 A'                 
 -0.637  -0.615  -0.598  -0.518  -0.475  -0.450  -0.434  -0.434
  6 A'    4 A"    7 A'    8 A'    5 A"    9 A'   10 A'    6 A"                 
 -0.374  -0.289
 11 A'    7 A"                                                                 
 -- Virtual --                   
  0.064   0.169   0.197   0.231   0.257   0.261   0.263   0.264
 12 A'    8 A"   13 A'   14 A'    9 A"   15 A'   10 A"   16 A'                 
  0.285   0.320   0.422   0.438   0.532   0.638   0.639   0.669
 11 A"   17 A'   18 A'   12 A"   13 A"   19 A'   20 A'   21 A'                 
  0.674   0.691   0.703   0.717   0.746   0.755   0.780   0.823
 14 A"   15 A"   22 A'   16 A"   23 A'   24 A'   17 A"   25 A'                 
  0.833   0.904   0.951   0.958   0.959   0.978   1.016   1.023
 26 A'   18 A"   19 A"   27 A'   28 A'   20 A"   21 A"   29 A'                 
  1.033   1.132   1.238   1.261   1.365   1.470   1.486   1.546
 30 A'   31 A'   22 A"   23 A"   32 A'   24 A"   33 A'   34 A'                 
  1.546   1.568   1.627   1.780   1.930   1.965   2.031   2.084
 35 A'   25 A"   26 A"   36 A'   37 A'   27 A"   38 A'   39 A'                 
  2.119   2.141   2.186   2.255   2.333   2.373   2.386   2.478
 40 A'   28 A"   29 A"   41 A'   30 A"   42 A'   31 A"   43 A'                 
  2.582   2.595   2.679   2.727   2.802   2.903   3.041   3.097
 44 A'   32 A"   33 A"   34 A"   45 A'   46 A'   35 A"   36 A"                 
  4.203   4.262   4.281   4.569   4.591
 47 A'   37 A"   48 A'   38 A"   49 A'                                         
 --------------------------------------------------------------
 
          Ground-State Mulliken Net Atomic Charges

     Atom                 Charge (a.u.)
  ----------------------------------------
      1 C                    -0.391192
      2 C                    -0.169614
      3 C                    -0.169614
      4 C                    -0.152870
      5 C                    -0.152870
      6 H                     0.191080
      7 H                     0.191081
      8 H                     0.164402
      9 H                     0.164402
     10 H                     0.162598
     11 H                     0.162598
  ----------------------------------------
  Sum of atomic charges =     0.000000

 -----------------------------------------------------------------
                    Cartesian Multipole Moments
 -----------------------------------------------------------------
    Charge (ESU x 10^10)
                -0.0000
    Dipole Moment (Debye)
         X       0.0000      Y      -0.4459      Z      -0.0000
       Tot       0.4459
    Quadrupole Moments (Debye-Ang)
        XX     -32.1362     XY       0.0000     YY     -26.4890
        XZ      -0.0000     YZ       0.0000     ZZ     -27.8810
    Octopole Moments (Debye-Ang^2)
       XXX       0.0000    XXY      -2.5798    XYY      -0.0000
       YYY       2.1467    XXZ      -0.0000    XYZ      -0.0000
       YYZ       0.0000    XZZ      -0.0001    YZZ      -0.2276
       ZZZ      -0.0000
    Hexadecapole Moments (Debye-Ang^3)
      XXXX     -39.8113   XXXY      -0.0001   XXYY     -39.3288
      XYYY       0.0001   YYYY    -190.8748   XXXZ      -0.0000
      XXYZ       0.0000   XYYZ      -0.0000   YYYZ       0.0000
      XXZZ     -45.4604   XYZZ       0.0000   YYZZ     -62.6049
      XZZZ       0.0000   YZZZ       0.0000   ZZZZ    -186.8504
 -----------------------------------------------------------------
 Calculating MO derivatives via CPSCF
 D1JvT checksum  = 150876 8074.4150987891
 D1KAT checksum  = 289608 823.9632987529
 D1JvT checksum  = 150876 4686.5226023309
 D1KAT checksum  = 289608 348.5805528680
   1         3          33      0.213287    0.048704
   2         3          33      0.031815    0.007209
   3         3          33      0.003964    0.000959
   4         3          33      0.000386    0.000109
   5        33           3      0.000018    0.000010
   6        36           0      0.000000    0.000000    Roots Converged
 Time for AOints: 1434.9 s (CPU) 9.3 s (wall)
 ------------------------------------------------------------------------------
                     AOints        : Timing summary (seconds)
 ------------------------------------------------------------------------------
     job step          cpu (% of tot)      sys (% of tot)     wall (% of tot)
 ------------------------------------------------------------------------------
  cpscf_lag         0.2732E+04 (38.3)   0.2814E-01 (37.7)   0.7325E+02 (60.0)
  iterzp            0.2969E+04 (41.6)   0.3020E-01 (40.5)   0.3953E+02 (32.4)
  make_fx           0.0000E+00 ( 0.0)   0.0000E+00 ( 0.0)   0.0000E+00 ( 0.0)
  AOints            0.1435E+04 (20.1)   0.1630E-01 (21.8)   0.9265E+01 ( 7.6)
 ------------------------------------------------------------------------------
   Grand Totals     0.7136E+04          0.7465E-01          0.1221E+03
 ------------------------------------------------------------------------------
 Calculating analytic Hessian of the SCF energy
 Polarizability Matrix (a.u.)
            1           2           3
    1 -24.4945220  -0.0000351  -0.0000000
    2  -0.0000351 -59.3321450  -0.0000000
    3  -0.0000000  -0.0000000 -52.7988149
atom: 0 element: 6
atom: 1 element: 6
atom: 2 element: 6
atom: 3 element: 6
atom: 4 element: 6
atom: 5 element: 1
atom: 6 element: 1
atom: 7 element: 1
atom: 8 element: 1
atom: 9 element: 1
atom: 10 element: 1
 
 Direct stationary perturbation theory relativistic correction:
 
 rels  =       0.044072847480
 relv  =      -0.205017471030
 rel2e =       0.000000000000
 E_rel =      -0.160944623550
 
 Hessian of the SCF Energy
            1           2           3           4           5           6
    1   0.5396033   0.0000030  -0.0000000  -0.0739867  -0.0000004  -0.0000004
    2   0.0000030   0.5929628   0.0000000  -0.0000003  -0.1197874   0.0533388
    3  -0.0000000   0.0000000   0.4363220  -0.0000006   0.0721199  -0.1687251
    4  -0.0739867  -0.0000003  -0.0000006   0.1389798   0.0000018   0.0000031
    5  -0.0000004  -0.1197874   0.0721199   0.0000018   0.7309318   0.1616102
    6  -0.0000004   0.0533388  -0.1687251   0.0000031   0.1616102   0.7285366
    7  -0.0739867  -0.0000003   0.0000006   0.0081409   0.0000001  -0.0000003
    8  -0.0000004  -0.1197874  -0.0721199   0.0000001  -0.0114935   0.0022609
    9   0.0000004  -0.0533388  -0.1687251   0.0000003  -0.0022609  -0.0560400
   10   0.0040986   0.0000002  -0.0000002  -0.0613797  -0.0000014  -0.0000005
   11   0.0000002  -0.0500777   0.0105559  -0.0000014  -0.4761900  -0.1241575
   12   0.0000007   0.0036225   0.0051410  -0.0000008  -0.1144765  -0.1446044
   13   0.0040986   0.0000002   0.0000002   0.0110510  -0.0000001  -0.0000000
   14   0.0000002  -0.0500777  -0.0105559  -0.0000002   0.0038138  -0.0256642
   15  -0.0000007  -0.0036225   0.0051410   0.0000001  -0.0497012  -0.0388435
   16  -0.2106305  -0.1272241   0.0000000   0.0009747   0.0014229   0.0000414
   17  -0.1329538  -0.1340923   0.0000000  -0.0134713  -0.0118114  -0.0014114
   18  -0.0000000   0.0000000  -0.0431349   0.0220553   0.0167531   0.0022697
   19  -0.2106369   0.1272214  -0.0000000   0.0009744  -0.0014224  -0.0000414
   20   0.1329514  -0.1340857   0.0000000   0.0134717  -0.0118112  -0.0014112
   21   0.0000000   0.0000000  -0.0431346  -0.0220556   0.0167530   0.0022694
   22  -0.0017646  -0.0000001  -0.0000001  -0.0297753  -0.0000007  -0.0000019
   23   0.0000000   0.0113150   0.0171906  -0.0000006  -0.0857408  -0.0839574
   24   0.0000000  -0.0104954  -0.0099649  -0.0000019  -0.0870181  -0.3289733
   25  -0.0017646  -0.0000001   0.0000001  -0.0006286   0.0000001  -0.0000001
   26   0.0000000   0.0113150  -0.0171906   0.0000000  -0.0041077  -0.0033750
   27  -0.0000000   0.0104954  -0.0099649   0.0000000  -0.0025414  -0.0017408
   28   0.0124848   0.0000000  -0.0000000   0.0040892   0.0000000   0.0000001
   29  -0.0000001  -0.0038423  -0.0017192   0.0000000  -0.0132243   0.0206775
   30  -0.0000000  -0.0025216  -0.0014773   0.0000000  -0.0111061   0.0119816
   31   0.0124848   0.0000000   0.0000000   0.0015605  -0.0000000   0.0000000
   32  -0.0000001  -0.0038423   0.0017192   0.0000000  -0.0005793   0.0020893
   33   0.0000000   0.0025216  -0.0014773  -0.0000000  -0.0001320  -0.0061302
            7           8           9          10          11          12
    1  -0.0739867  -0.0000004   0.0000004   0.0040986   0.0000002   0.0000007
    2  -0.0000003  -0.1197874  -0.0533388   0.0000002  -0.0500777   0.0036225
    3   0.0000006  -0.0721199  -0.1687251  -0.0000002   0.0105559   0.0051410
    4   0.0081409   0.0000001   0.0000003  -0.0613797  -0.0000014  -0.0000008
    5   0.0000001  -0.0114935  -0.0022609  -0.0000014  -0.4761900  -0.1144765
    6  -0.0000003   0.0022609  -0.0560400  -0.0000005  -0.1241575  -0.1446044
    7   0.1389798   0.0000018  -0.0000031   0.0110510  -0.0000002  -0.0000001
    8   0.0000018   0.7309318  -0.1616102  -0.0000001   0.0038138   0.0497012
    9  -0.0000031  -0.1616102   0.7285366   0.0000000   0.0256642  -0.0388435
   10   0.0110510  -0.0000001   0.0000000   0.1315748   0.0000016   0.0000005
   11  -0.0000002   0.0038138   0.0256642   0.0000016   0.8879321  -0.0447651
   12  -0.0000001   0.0497012  -0.0388435   0.0000005  -0.0447651   0.5922261
   13  -0.0613797  -0.0000014   0.0000005  -0.0597587   0.0000000   0.0000001
   14  -0.0000014  -0.4761900   0.1241575   0.0000000  -0.1044229  -0.0093345
   15   0.0000008   0.1144765  -0.1446044  -0.0000001   0.0093345  -0.2418803
   16   0.0009747   0.0014229  -0.0000414   0.0000508   0.0007861   0.0004541
   17  -0.0134713  -0.0118114   0.0014114  -0.0007348  -0.0015926   0.0011185
   18  -0.0220553  -0.0167531   0.0022697  -0.0020201   0.0028927  -0.0043884
   19   0.0009744  -0.0014224   0.0000414   0.0000508  -0.0007862  -0.0004543
   20   0.0134717  -0.0118112   0.0014112   0.0007348  -0.0015927   0.0011183
   21   0.0220556  -0.0167530   0.0022694   0.0020201   0.0028926  -0.0043883
   22  -0.0006286   0.0000001   0.0000001   0.0049309   0.0000000  -0.0000001
   23   0.0000000  -0.0041077   0.0033750  -0.0000001   0.0008508  -0.0283206
   24  -0.0000000   0.0025414  -0.0017408  -0.0000000   0.0030312  -0.0023265
   25  -0.0297753  -0.0000007   0.0000019   0.0076815  -0.0000001  -0.0000001
   26  -0.0000006  -0.0857408   0.0839574  -0.0000000  -0.0054441   0.0011950
   27   0.0000019   0.0870181  -0.3289733   0.0000001   0.0014032  -0.0002760
   28   0.0015605  -0.0000000  -0.0000000  -0.0387944  -0.0000002  -0.0000000
   29   0.0000000  -0.0005793  -0.0020893  -0.0000002  -0.2596801   0.1355041
   30   0.0000000   0.0001320  -0.0061302   0.0000000   0.1371765  -0.1558445
   31   0.0040892   0.0000000  -0.0000001   0.0004943   0.0000000   0.0000000
   32   0.0000000  -0.0132243  -0.0206775   0.0000000   0.0064035   0.0046371
   33  -0.0000000   0.0111061   0.0119816  -0.0000000  -0.0240282  -0.0048151
           13          14          15          16          17          18
    1   0.0040986   0.0000002  -0.0000007  -0.2106305  -0.1329538  -0.0000000
    2   0.0000002  -0.0500777  -0.0036225  -0.1272241  -0.1340923   0.0000000
    3   0.0000002  -0.0105559   0.0051410   0.0000000   0.0000000  -0.0431349
    4   0.0110510  -0.0000002   0.0000001   0.0009747  -0.0134713   0.0220553
    5  -0.0000001   0.0038138  -0.0497012   0.0014229  -0.0118114   0.0167531
    6  -0.0000000  -0.0256642  -0.0388435   0.0000414  -0.0014114   0.0022697
    7  -0.0613797  -0.0000014   0.0000008   0.0009747  -0.0134713  -0.0220553
    8  -0.0000014  -0.4761900   0.1144765   0.0014229  -0.0118114  -0.0167531
    9   0.0000005   0.1241575  -0.1446044  -0.0000414   0.0014114   0.0022697
   10  -0.0597587   0.0000000  -0.0000001   0.0000508  -0.0007348  -0.0020201
   11   0.0000000  -0.1044229   0.0093345   0.0007861  -0.0015926   0.0028927
   12   0.0000001  -0.0093345  -0.2418803   0.0004541   0.0011185  -0.0043884
   13   0.1315748   0.0000016  -0.0000005   0.0000508  -0.0007348   0.0020201
   14   0.0000016   0.8879321   0.0447651   0.0007861  -0.0015926  -0.0028927
   15  -0.0000005   0.0447651   0.5922261  -0.0004541  -0.0011185  -0.0043884
   16   0.0000508   0.0007861  -0.0004541   0.2314027   0.1401703   0.0000000
   17  -0.0007348  -0.0015926  -0.0011185   0.1401703   0.1495410   0.0000000
   18   0.0020201  -0.0028927  -0.0043884   0.0000000   0.0000000   0.0457787
   19   0.0000508  -0.0007862   0.0004543  -0.0224993   0.0165792  -0.0000000
   20   0.0007348  -0.0015927  -0.0011183  -0.0165801   0.0122340  -0.0000000
   21  -0.0020201  -0.0028926  -0.0043883   0.0000000  -0.0000000   0.0006313
   22   0.0076815  -0.0000001   0.0000001   0.0002298   0.0006783  -0.0009679
   23  -0.0000000  -0.0054441  -0.0011950  -0.0005001   0.0002630  -0.0006872
   24  -0.0000001  -0.0014032  -0.0002760   0.0004070   0.0002644   0.0000107
   25   0.0049309   0.0000000   0.0000001   0.0002298   0.0006783   0.0009679
   26  -0.0000001   0.0008508   0.0283206  -0.0005001   0.0002630   0.0006872
   27   0.0000000  -0.0030312  -0.0023265  -0.0004070  -0.0002644   0.0000107
   28   0.0004943   0.0000000  -0.0000000  -0.0003917   0.0016299  -0.0020581
   29   0.0000000   0.0064035  -0.0046371   0.0001081  -0.0007004   0.0005937
   30   0.0000000   0.0240282  -0.0048151   0.0000031  -0.0000752   0.0004705
   31  -0.0387944  -0.0000002   0.0000000  -0.0003917   0.0016299   0.0020581
   32  -0.0000002  -0.2596801  -0.1355041   0.0001081  -0.0007004  -0.0005937
   33  -0.0000000  -0.1371765  -0.1558445  -0.0000031   0.0000752   0.0004705
           19          20          21          22          23          24
    1  -0.2106369   0.1329514   0.0000000  -0.0017646   0.0000000   0.0000000
    2   0.1272214  -0.1340857   0.0000000  -0.0000001   0.0113150  -0.0104954
    3  -0.0000000   0.0000000  -0.0431346  -0.0000001   0.0171906  -0.0099649
    4   0.0009744   0.0134717  -0.0220556  -0.0297753  -0.0000006  -0.0000019
    5  -0.0014224  -0.0118112   0.0167530  -0.0000007  -0.0857408  -0.0870181
    6  -0.0000414  -0.0014112   0.0022694  -0.0000019  -0.0839574  -0.3289733
    7   0.0009744   0.0134717   0.0220556  -0.0006286   0.0000000  -0.0000000
    8  -0.0014224  -0.0118112  -0.0167530   0.0000001  -0.0041077   0.0025414
    9   0.0000414   0.0014112   0.0022694   0.0000001   0.0033750  -0.0017408
   10   0.0000508   0.0007348   0.0020201   0.0049309  -0.0000001  -0.0000000
   11  -0.0007862  -0.0015927   0.0028926   0.0000000   0.0008508   0.0030312
   12  -0.0004543   0.0011183  -0.0043883  -0.0000001  -0.0283206  -0.0023265
   13   0.0000508   0.0007348  -0.0020201   0.0076815  -0.0000000  -0.0000001
   14  -0.0007862  -0.0015927  -0.0028926  -0.0000001  -0.0054441  -0.0014032
   15   0.0004543  -0.0011183  -0.0043883   0.0000001  -0.0011950  -0.0002760
   16  -0.0224993  -0.0165801   0.0000000   0.0002298  -0.0005001   0.0004070
   17   0.0165792   0.0122340  -0.0000000   0.0006783   0.0002630   0.0002644
   18  -0.0000000  -0.0000000   0.0006313  -0.0009679  -0.0006872   0.0000107
   19   0.2314096  -0.1401677  -0.0000000   0.0002298   0.0005001  -0.0004070
   20  -0.1401677   0.1495341   0.0000000  -0.0006783   0.0002630   0.0002644
   21  -0.0000000   0.0000000   0.0457790   0.0009679  -0.0006872   0.0000107
   22   0.0002298  -0.0006783   0.0009679   0.0215835   0.0000007   0.0000020
   23   0.0005001   0.0002630  -0.0006872   0.0000007   0.0801264   0.0941433
   24  -0.0004070   0.0002644   0.0000107   0.0000020   0.0941433   0.3435963
   25   0.0002298  -0.0006783  -0.0009679   0.0022195  -0.0000000  -0.0000000
   26   0.0005001   0.0002630   0.0006872  -0.0000000   0.0011546  -0.0007965
   27   0.0004070  -0.0002644   0.0000107   0.0000000   0.0007965  -0.0005101
   28  -0.0003917  -0.0016300   0.0020581  -0.0053880   0.0000000   0.0000000
   29  -0.0001080  -0.0007004   0.0005936   0.0000000   0.0008175  -0.0005427
   30  -0.0000031  -0.0000752   0.0004705   0.0000000   0.0008867   0.0003367
   31  -0.0003917  -0.0016300  -0.0020581   0.0006814   0.0000000  -0.0000000
   32  -0.0001080  -0.0007004  -0.0005936   0.0000000   0.0005023   0.0000112
   33   0.0000031   0.0000752   0.0004705  -0.0000000  -0.0015447  -0.0001627
           25          26          27          28          29          30
    1  -0.0017646   0.0000000  -0.0000000   0.0124848  -0.0000001  -0.0000000
    2  -0.0000001   0.0113150   0.0104954   0.0000000  -0.0038423  -0.0025216
    3   0.0000001  -0.0171906  -0.0099649  -0.0000000  -0.0017192  -0.0014773
    4  -0.0006286   0.0000000   0.0000000   0.0040892   0.0000000   0.0000000
    5   0.0000001  -0.0041077  -0.0025414   0.0000000  -0.0132243  -0.0111061
    6  -0.0000001  -0.0033750  -0.0017408   0.0000001   0.0206775   0.0119816
    7  -0.0297753  -0.0000006   0.0000019   0.0015605   0.0000000   0.0000000
    8  -0.0000007  -0.0857408   0.0870181  -0.0000000  -0.0005793   0.0001320
    9   0.0000019   0.0839574  -0.3289733  -0.0000000  -0.0020893  -0.0061302
   10   0.0076815  -0.0000000   0.0000001  -0.0387944  -0.0000002   0.0000000
   11  -0.0000001  -0.0054441   0.0014032  -0.0000002  -0.2596801   0.1371765
   12  -0.0000001   0.0011950  -0.0002760  -0.0000000   0.1355041  -0.1558445
   13   0.0049309  -0.0000001   0.0000000   0.0004943   0.0000000   0.0000000
   14   0.0000000   0.0008508  -0.0030312   0.0000000   0.0064035   0.0240282
   15   0.0000001   0.0283206  -0.0023265  -0.0000000  -0.0046371  -0.0048151
   16   0.0002298  -0.0005001  -0.0004070  -0.0003917   0.0001081   0.0000031
   17   0.0006783   0.0002630  -0.0002644   0.0016299  -0.0007004  -0.0000752
   18   0.0009679   0.0006872   0.0000107  -0.0020581   0.0005937   0.0004705
   19   0.0002298   0.0005001   0.0004070  -0.0003917  -0.0001080  -0.0000031
   20  -0.0006783   0.0002630  -0.0002644  -0.0016300  -0.0007004  -0.0000752
   21  -0.0009679   0.0006872   0.0000107   0.0020581   0.0005936   0.0004705
   22   0.0022195  -0.0000000   0.0000000  -0.0053880   0.0000000   0.0000000
   23  -0.0000000   0.0011546   0.0007965   0.0000000   0.0008175   0.0008867
   24  -0.0000000  -0.0007965  -0.0005101   0.0000000  -0.0005427   0.0003367
   25   0.0215835   0.0000007  -0.0000020   0.0006814   0.0000000   0.0000000
   26   0.0000007   0.0801264  -0.0941433   0.0000000   0.0005023   0.0015447
   27  -0.0000020  -0.0941433   0.3435963   0.0000000  -0.0000112  -0.0001627
   28   0.0006814   0.0000000   0.0000000   0.0262818   0.0000002  -0.0000001
   29   0.0000000   0.0005023  -0.0000112   0.0000002   0.2711138  -0.1491797
   30   0.0000000   0.0015447  -0.0001627  -0.0000001  -0.1491797   0.1546894
   31  -0.0053880   0.0000000  -0.0000000  -0.0006262  -0.0000000  -0.0000000
   32   0.0000000   0.0008175   0.0005427  -0.0000000  -0.0001103  -0.0008103
   33  -0.0000000  -0.0008867   0.0003367   0.0000000   0.0008103   0.0004811
           31          32          33
    1   0.0124848  -0.0000001   0.0000000
    2   0.0000000  -0.0038423   0.0025216
    3   0.0000000   0.0017192  -0.0014773
    4   0.0015605   0.0000000  -0.0000000
    5  -0.0000000  -0.0005793  -0.0001320
    6   0.0000000   0.0020893  -0.0061302
    7   0.0040892   0.0000000  -0.0000000
    8   0.0000000  -0.0132243   0.0111061
    9  -0.0000001  -0.0206775   0.0119816
   10   0.0004943   0.0000000  -0.0000000
   11   0.0000000   0.0064035  -0.0240282
   12   0.0000000   0.0046371  -0.0048151
   13  -0.0387944  -0.0000002  -0.0000000
   14  -0.0000002  -0.2596801  -0.1371765
   15   0.0000000  -0.1355041  -0.1558445
   16  -0.0003917   0.0001081  -0.0000031
   17   0.0016299  -0.0007004   0.0000752
   18   0.0020581  -0.0005937   0.0004705
   19  -0.0003917  -0.0001080   0.0000031
   20  -0.0016300  -0.0007004   0.0000752
   21  -0.0020581  -0.0005936   0.0004705
   22   0.0006814   0.0000000  -0.0000000
   23   0.0000000   0.0005023  -0.0015447
   24  -0.0000000   0.0000112  -0.0001627
   25  -0.0053880   0.0000000  -0.0000000
   26   0.0000000   0.0008175  -0.0008867
   27  -0.0000000   0.0005427   0.0003367
   28  -0.0006262  -0.0000000   0.0000000
   29  -0.0000000  -0.0001103   0.0008103
   30  -0.0000000  -0.0008103   0.0004811
   31   0.0262818   0.0000002   0.0000001
   32   0.0000002   0.2711138   0.1491797
   33   0.0000001   0.1491797   0.1546894
 Gradient time:  CPU 7872.64 s  wall 234.61 s
 **********************************************************************
 **                                                                  **
 **                       VIBRATIONAL ANALYSIS                       **
 **                       --------------------                       **
 **                                                                  **
 **        VIBRATIONAL FREQUENCIES (CM**-1) AND NORMAL MODES         **
 **     FORCE CONSTANTS (mDYN/ANGSTROM) AND REDUCED MASSES (AMU)     **
 **                  INFRARED INTENSITIES (KM/MOL)                   **
 **                                                                  **
 **********************************************************************
 

 Mode:                 1                      2                      3
 Frequency:       347.48                 531.64                 696.89
 Force Cnst:      0.1095                 0.4084                 0.3356
 Red. Mass:       1.5396                 2.4525                 1.1727
 IR Active:          YES                    YES                    YES
 IR Intens:        9.926                  0.000                 65.039
 Raman Active:       YES                    YES                    YES
               X      Y      Z        X      Y      Z        X      Y      Z
 C          0.062  0.000  0.000    0.000  0.000 -0.000   -0.095  0.000 -0.000
 C         -0.133 -0.000 -0.000   -0.161  0.000  0.000    0.016 -0.000 -0.000
 C         -0.133 -0.000  0.000    0.161 -0.000  0.000    0.016 -0.000  0.000
 C          0.067 -0.000  0.000    0.199 -0.000  0.000   -0.052 -0.000  0.000
 C          0.067 -0.000 -0.000   -0.199  0.000  0.000   -0.052 -0.000 -0.000
 H          0.431 -0.476  0.000   -0.000  0.000  0.301    0.082 -0.228 -0.000
 H          0.431  0.476 -0.000   -0.000 -0.000 -0.301    0.082  0.228  0.000
 H         -0.184 -0.000  0.000   -0.002  0.000 -0.000    0.554 -0.000 -0.000
 H         -0.184 -0.000 -0.000    0.002 -0.000 -0.000    0.554 -0.000  0.000
 H          0.170 -0.000  0.000    0.586 -0.000 -0.000    0.357 -0.000  0.000
 H          0.170 -0.000 -0.000   -0.586  0.000 -0.000    0.357 -0.000 -0.000
 TransDip   0.101 -0.000  0.000   -0.000  0.000 -0.000    0.258 -0.000 -0.000

 Mode:                 4                      5                      6
 Frequency:       727.05                 819.04                 819.31
 Force Cnst:      0.3942                 2.1850                 2.0137
 Red. Mass:       1.2658                 5.5282                 5.0917
 IR Active:          YES                    YES                    YES
 IR Intens:        0.000                  6.552                  0.043
 Raman Active:       YES                    YES                    YES
               X      Y      Z        X      Y      Z        X      Y      Z
 C         -0.000  0.000 -0.000    0.000 -0.000 -0.186   -0.000  0.363 -0.000
 C         -0.050 -0.000 -0.000    0.000 -0.168 -0.145    0.000 -0.035 -0.305
 C          0.050  0.000 -0.000   -0.000  0.168 -0.145    0.000 -0.035  0.305
 C         -0.096 -0.000  0.000   -0.000 -0.285  0.240    0.000 -0.156 -0.035
 C          0.096  0.000  0.000    0.000  0.285  0.240    0.000 -0.156  0.035
 H         -0.000 -0.000  0.149   -0.000 -0.000  0.128    0.033  0.315  0.000
 H         -0.000  0.000 -0.149    0.000 -0.000  0.128   -0.033  0.315  0.000
 H          0.666 -0.000 -0.000   -0.000  0.239 -0.270   -0.000 -0.265 -0.233
 H         -0.666  0.000 -0.000    0.000 -0.239 -0.270   -0.000 -0.265  0.233
 H          0.150 -0.000  0.000   -0.000 -0.366  0.118   -0.000  0.071  0.291
 H         -0.150  0.000  0.000    0.000  0.366  0.118   -0.000  0.071 -0.291
 TransDip   0.000 -0.000 -0.000    0.000  0.000  0.082   -0.000 -0.007  0.000

 Mode:                 7                      8                      9
 Frequency:       940.58                 942.85                 977.41
 Force Cnst:      1.0176                 1.0867                 0.7106
 Red. Mass:       1.9523                 2.0748                 1.2624
 IR Active:          YES                    YES                    YES
 IR Intens:       23.548                 10.716                  0.312
 Raman Active:       YES                    YES                    YES
               X      Y      Z        X      Y      Z        X      Y      Z
 C          0.220 -0.000  0.000    0.000  0.202 -0.000    0.011 -0.000 -0.000
 C         -0.136  0.000 -0.000   -0.000 -0.068  0.145    0.069 -0.000 -0.000
 C         -0.136  0.000  0.000   -0.000 -0.068 -0.145    0.069 -0.000  0.000
 C         -0.011 -0.000  0.000   -0.000  0.003 -0.051   -0.082  0.000 -0.000
 C         -0.011 -0.000 -0.000   -0.000  0.003  0.051   -0.082  0.000  0.000
 H         -0.167  0.485  0.000    0.002  0.201 -0.000    0.006  0.012  0.000
 H         -0.167 -0.485  0.000   -0.002  0.201 -0.000    0.006 -0.012 -0.000
 H          0.252  0.000 -0.000    0.000 -0.494  0.289   -0.447  0.000  0.000
 H          0.252  0.000  0.000    0.000 -0.494 -0.289   -0.447  0.000 -0.000
 H          0.361  0.000  0.000    0.000 -0.137 -0.254    0.537 -0.000 -0.000
 H          0.361  0.000 -0.000    0.000 -0.137  0.254    0.537 -0.000  0.000
 TransDip   0.155  0.000  0.000    0.000 -0.105 -0.000    0.018  0.000 -0.000

 Mode:                10                     11                     12
 Frequency:       984.33                 993.29                1034.57
 Force Cnst:      0.7589                 0.9186                 1.6277
 Red. Mass:       1.3294                 1.5802                 2.5812
 IR Active:          YES                    YES                    YES
 IR Intens:        0.000                 11.672                  0.051
 Raman Active:       YES                    YES                    YES
               X      Y      Z        X      Y      Z        X      Y      Z
 C          0.000 -0.000  0.000   -0.000  0.000  0.139    0.000  0.089 -0.000
 C          0.048  0.000 -0.000   -0.000  0.029 -0.120   -0.000 -0.002  0.113
 C         -0.048 -0.000 -0.000    0.000 -0.029 -0.120   -0.000 -0.002 -0.113
 C         -0.111  0.000 -0.000    0.000  0.035 -0.000   -0.000 -0.072  0.223
 C          0.111 -0.000 -0.000   -0.000 -0.035 -0.000   -0.000 -0.072 -0.223
 H         -0.000  0.000 -0.061   -0.000  0.000  0.601   -0.009  0.106 -0.000
 H         -0.000 -0.000  0.061    0.000  0.000  0.601    0.009  0.106 -0.000
 H         -0.277  0.000  0.000   -0.000  0.174 -0.171   -0.000  0.076  0.102
 H          0.277 -0.000  0.000    0.000 -0.174 -0.171   -0.000  0.076 -0.102
 H          0.636  0.000  0.000   -0.000  0.157  0.171    0.000  0.173  0.609
 H         -0.636 -0.000  0.000    0.000 -0.157  0.171    0.000  0.173 -0.609
 TransDip   0.000  0.000  0.000   -0.000 -0.000  0.109    0.000  0.007 -0.000

 Mode:                13                     14                     15
 Frequency:      1129.68                1147.55                1150.77
 Force Cnst:      0.8448                 0.9634                 0.8800
 Red. Mass:       1.1235                 1.2416                 1.1278
 IR Active:          YES                    YES                    YES
 IR Intens:        2.393                  0.160                  0.000
 Raman Active:       YES                    YES                    YES
               X      Y      Z        X      Y      Z        X      Y      Z
 C          0.000 -0.000  0.002    0.000  0.084 -0.000   -0.000 -0.000  0.000
 C          0.000  0.038  0.055    0.000  0.010  0.028   -0.073  0.000 -0.000
 C         -0.000 -0.038  0.055    0.000  0.010 -0.028    0.073 -0.000 -0.000
 C         -0.000 -0.010 -0.026   -0.000 -0.072  0.033    0.012 -0.000 -0.000
 C          0.000  0.010 -0.026   -0.000 -0.072 -0.033   -0.012  0.000 -0.000
 H          0.000 -0.000  0.096   -0.004  0.099  0.000    0.000 -0.000 -0.693
 H         -0.000 -0.000  0.096    0.004  0.099  0.000    0.000 -0.000  0.693
 H          0.000  0.535 -0.099   -0.000  0.483 -0.116    0.096  0.000 -0.000
 H         -0.000 -0.535 -0.099   -0.000  0.483  0.116   -0.096 -0.000 -0.000
 H         -0.000 -0.243 -0.362   -0.000 -0.340 -0.343    0.067  0.000  0.000
 H          0.000  0.243 -0.362   -0.000 -0.340  0.343   -0.067 -0.000  0.000
 TransDip   0.000  0.000 -0.050    0.000  0.013  0.000   -0.000 -0.000  0.000

 Mode:                16                     17                     18
 Frequency:      1299.44                1347.38                1430.79
 Force Cnst:      1.4978                 2.0385                 2.1210
 Red. Mass:       1.5056                 1.9058                 1.7585
 IR Active:          YES                    YES                    YES
 IR Intens:        1.714                  1.917                 13.511
 Raman Active:       YES                    YES                    YES
               X      Y      Z        X      Y      Z        X      Y      Z
 C         -0.000  0.000  0.190   -0.000  0.000  0.156   -0.000  0.010  0.000
 C          0.000 -0.031 -0.030   -0.000  0.105 -0.106    0.000 -0.068  0.071
 C         -0.000  0.031 -0.030    0.000 -0.105 -0.106    0.000 -0.068 -0.071
 C         -0.000 -0.044 -0.028    0.000 -0.001  0.080   -0.000 -0.021 -0.155
 C          0.000  0.044 -0.028   -0.000  0.001  0.080   -0.000 -0.021  0.155
 H         -0.000  0.000 -0.525   -0.000  0.000 -0.209   -0.187  0.282 -0.000
 H          0.000  0.000 -0.525    0.000  0.000 -0.209    0.187  0.282 -0.000
 H         -0.000  0.323 -0.149   -0.000 -0.327  0.025    0.000  0.401 -0.076
 H          0.000 -0.323 -0.149    0.000  0.327  0.025    0.000  0.401  0.076
 H          0.000  0.137  0.238   -0.000 -0.350 -0.430    0.000  0.307  0.302
 H         -0.000 -0.137  0.238    0.000  0.350 -0.430    0.000  0.307 -0.302
 TransDip  -0.000 -0.000 -0.042    0.000 -0.000 -0.044   -0.000  0.118 -0.000

 Mode:                19                     20                     21
 Frequency:      1454.88                1609.68                1692.77
 Force Cnst:      1.4804                 9.6900                 9.0538
 Red. Mass:       1.1870                 6.3473                 5.3627
 IR Active:          YES                    YES                    YES
 IR Intens:        7.456                  2.479                  0.388
 Raman Active:       YES                    YES                    YES
               X      Y      Z        X      Y      Z        X      Y      Z
 C          0.000 -0.102 -0.000   -0.000 -0.060  0.000    0.000 -0.000  0.010
 C          0.000  0.033 -0.024    0.000  0.357  0.084   -0.000 -0.294 -0.054
 C          0.000  0.033  0.024    0.000  0.357 -0.084    0.000  0.294 -0.054
 C          0.000 -0.006  0.035   -0.000 -0.284 -0.162    0.000  0.307  0.121
 C          0.000 -0.006 -0.035   -0.000 -0.284  0.162   -0.000 -0.307  0.121
 H         -0.441  0.512  0.000    0.096 -0.190 -0.000   -0.000  0.000 -0.166
 H          0.441  0.512  0.000   -0.096 -0.190 -0.000    0.000  0.000 -0.166
 H         -0.000 -0.144  0.028    0.000 -0.235  0.321   -0.000  0.133 -0.246
 H         -0.000 -0.144 -0.028    0.000 -0.235 -0.321    0.000 -0.133 -0.246
 H         -0.000 -0.086 -0.077    0.000 -0.080  0.217   -0.000 -0.015 -0.443
 H         -0.000 -0.086  0.077    0.000 -0.080 -0.217    0.000  0.015 -0.443
 TransDip  -0.000  0.087  0.000   -0.000  0.050 -0.000   -0.000 -0.000 -0.020

 Mode:                22                     23                     24
 Frequency:      3062.07                3097.97                3243.09
 Force Cnst:      5.8636                 6.2180                 6.7265
 Red. Mass:       1.0614                 1.0996                 1.0855
 IR Active:          YES                    YES                    YES
 IR Intens:       10.003                  9.941                  1.649
 Raman Active:       YES                    YES                    YES
               X      Y      Z        X      Y      Z        X      Y      Z
 C         -0.000  0.070  0.000   -0.091 -0.000  0.000   -0.000  0.000  0.001
 C         -0.000 -0.001 -0.001   -0.001  0.000  0.000   -0.000 -0.008 -0.031
 C         -0.000 -0.001  0.001   -0.001  0.000 -0.000    0.000  0.008 -0.031
 C         -0.000 -0.000 -0.001   -0.000 -0.000 -0.000   -0.000 -0.042  0.027
 C         -0.000 -0.000  0.001   -0.000 -0.000  0.000    0.000  0.042  0.027
 H         -0.574 -0.410  0.000    0.555  0.434  0.000    0.000  0.000 -0.002
 H          0.574 -0.410  0.000    0.555 -0.433 -0.000   -0.000  0.000 -0.002
 H          0.000  0.013  0.024    0.003 -0.000 -0.000    0.000  0.115  0.366
 H          0.000  0.013 -0.024    0.003 -0.000  0.000   -0.000 -0.115  0.366
 H         -0.000 -0.005  0.003   -0.000  0.000 -0.000    0.000  0.489 -0.332
 H         -0.000 -0.005 -0.003   -0.000  0.000  0.000   -0.000 -0.489 -0.332
 TransDip  -0.000  0.101 -0.000   -0.101 -0.000  0.000   -0.000 -0.000  0.041

 Mode:                25                     26                     27
 Frequency:      3251.26                3267.42                3275.91
 Force Cnst:      6.7790                 6.9328                 7.0038
 Red. Mass:       1.0885                 1.1022                 1.1077
 IR Active:          YES                    YES                    YES
 IR Intens:       11.820                 27.705                  5.381
 Raman Active:       YES                    YES                    YES
               X      Y      Z        X      Y      Z        X      Y      Z
 C          0.000  0.003 -0.000   -0.000  0.000  0.002    0.000 -0.004  0.000
 C          0.000  0.012  0.043   -0.000 -0.021 -0.050   -0.000 -0.018 -0.042
 C          0.000  0.012 -0.043    0.000  0.021 -0.050   -0.000 -0.018  0.042
 C          0.000  0.033 -0.025    0.000  0.033 -0.016    0.000  0.042 -0.026
 C          0.000  0.033  0.025   -0.000 -0.033 -0.016    0.000  0.042  0.026
 H         -0.012 -0.009 -0.000   -0.000 -0.000 -0.003    0.016  0.015 -0.000
 H          0.012 -0.009 -0.000    0.000 -0.000 -0.003   -0.016  0.015 -0.000
 H         -0.000 -0.156 -0.493    0.000  0.182  0.563    0.000  0.147  0.454
 H         -0.000 -0.156  0.493   -0.000 -0.182  0.563    0.000  0.147 -0.454
 H         -0.000 -0.393  0.273   -0.000 -0.318  0.212   -0.000 -0.426  0.292
 H         -0.000 -0.393 -0.273    0.000  0.318  0.212   -0.000 -0.426 -0.292
 TransDip   0.000  0.110  0.000   -0.000  0.000 -0.169   -0.000  0.074 -0.000

 STANDARD THERMODYNAMIC QUANTITIES AT   298.15 K  AND     1.00 ATM

   This Molecule has  0 Imaginary Frequencies
   Zero point vibrational energy:       59.006 kcal/mol

   Atom    1 Element C  Has Mass   12.00000
   Atom    2 Element C  Has Mass   12.00000
   Atom    3 Element C  Has Mass   12.00000
   Atom    4 Element C  Has Mass   12.00000
   Atom    5 Element C  Has Mass   12.00000
   Atom    6 Element H  Has Mass    1.00783
   Atom    7 Element H  Has Mass    1.00783
   Atom    8 Element H  Has Mass    1.00783
   Atom    9 Element H  Has Mass    1.00783
   Atom   10 Element H  Has Mass    1.00783
   Atom   11 Element H  Has Mass    1.00783
   Molecular Mass:    66.046980 amu
   Principal axes and moments of inertia in amu*Bohr^2:
                             1           2           3
    Eigenvalues --      212.61679   218.67863   420.16984
          X               0.00000     0.00000     1.00000
          Y              -0.00000     1.00000    -0.00000
          Z               1.00000     0.00000    -0.00000
   Rotational Symmetry Number is   1
   The Molecule is an Asymmetric Top
   Translational Enthalpy:        0.889 kcal/mol
   Rotational Enthalpy:           0.889 kcal/mol
   Vibrational Enthalpy:         59.803 kcal/mol
   gas constant (RT):             0.592 kcal/mol
   Translational Entropy:        38.481  cal/mol.K
   Rotational Entropy:           24.483  cal/mol.K
   Vibrational Entropy:           3.597  cal/mol.K

   Total Enthalpy:               62.173 kcal/mol
   Total Entropy:                66.561  cal/mol.K
Archival summary:
1\1\nid02526\FREQ\ProcedureUnspecified\6-31G*\56\ewcss\FriJul610:07:232018FriJul610:07:232018\0\\#,FREQ,ProcedureUnspecified,6-31G*,\\0,1\C\H,1,1.08396\C,1,1.34416,2,126.367\H,3,1.08347,1,126.855,2,-0,0\C,1,1.46765,2,124.374,3,-180,0\H,5,1.08396,1,124.374,2,0,0\C,5,1.34416,1,109.26,2,180,0\H,7,1.08347,5,126.855,1,-180,0\C,7,1.50263,5,109.165,1,0,0\H,9,1.09902,7,111.899,5,-120.447,0\H,9,1.09902,7,111.899,5,120.445,0\\\@

 Total job time:  250.03s(wall), 10383.94s(cpu) 
 Fri Jul  6 10:07:23 2018

        *************************************************************
        *                                                           *
        *  Thank you very much for using Q-Chem.  Have a nice day.  *
        *                                                           *
        *************************************************************


0 sent ACK to 0 
now end server 0 ... 
cleanup process ... done
