
Running Job 1 of 1 test_fsm.qin
qchem test_fsm.qin_14368.0 /tmp/qchem14368/ 1
srun -n 1 /global/common/edison/software/qchem/5.1beta/exe/qcprog.exe test_fsm.qin_14368.0 /tmp/qchem14368/

Process 0 of 1 is on nid03520 - thread support 0
initial socket setup ...start
initial socket setup ...done 
now start server 0 ... 
Check license passed

                  Welcome to Q-Chem
     A Quantum Leap Into The Future Of Chemistry


 Q-Chem 5.1, Q-Chem, Inc., Pleasanton, CA (2018)

 Yihan Shao,  Zhengting Gan,  E. Epifanovsky,  A. T. B. Gilbert,  M. Wormit,  
 J. Kussmann,  A. W. Lange,  A. Behn,  Jia Deng,  Xintian Feng,  D. Ghosh,  
 M. Goldey,  P. R. Horn,  L. D. Jacobson,  I. Kaliman,  T. Kus,  A. Landau,  
 Jie Liu,  E. I. Proynov,  R. M. Richard,  R. P. Steele,  E. J. Sundstrom,  
 H. L. Woodcock III,  P. M. Zimmerman,  D. Zuev,  B. Albrecht,  E. Alguire,  
 S. A. Baeppler,  D. Barton,  Z. Benda,  Y. A. Bernard,  E. J. Berquist,  
 K. B. Bravaya,  H. Burton,  D. Casanova,  Chun-Min Chang,  Yunqing Chen,  
 A. Chien,  K. D. Closser,  M. P. Coons,  S. Coriani,  S. Dasgupta,  
 A. L. Dempwolff,  M. Diedenhofen,  Hainam Do,  R. G. Edgar,  Po-Tung Fang,  
 S. Faraji,  S. Fatehi,  Qingguo Feng,  K. D. Fenk,  J. Fosso-Tande,  
 Qinghui Ge,  A. Ghysels,  G. Gidofalvi,  J. Gomes,  J. Gonthier,  A. Gunina,  
 D. Hait,  M. W. D. Hanson-Heine,  P. H. P. Harbach,  A. W. Hauser,  
 J. E. Herr,  E. G. Hohenstein,  Z. C. Holden,  Kerwin Hui,  B. C. Huynh,  
 T.-C. Jagau,  Hyunjun Ji,  B. Kaduk,  K. Khistyaev,  Jaehoon Kim,  
 P. Klunzinger,  K. Koh,  D. Kosenkov,  L. Koulias,  T. Kowalczyk,  
 C. M. Krauter,  A. Kunitsa,  Ka Un Lao,  A. Laurent,  K. V. Lawler,  
 Joonho Lee,  D. Lefrancois,  S. Lehtola,  D. S. Levine,  Yi-Pei Li,  
 You-Sheng Lin,  Fenglai Liu,  E. Livshits,  A. Luenser,  P. Manohar,  
 E. Mansoor,  S. F. Manzer,  Shan-Ping Mao,  Yuezhi Mao,  N. Mardirossian,  
 A. V. Marenich,  T. Markovich,  L. A. Martinez-Martinez,  S. A. Maurer,  
 N. J. Mayhall,  S. C. McKenzie,  J.-M. Mewes,  A. F. Morrison,  
 J. W. Mullinax,  K. Nanda,  T. S. Nguyen-Beck,  R. Olivares-Amaya,  
 J. A. Parkhill,  T. M. Perrine,  F. Plasser,  P. Pokhilko,  S. Prager,  
 A. Prociuk,  E. Ramos,  D. R. Rehn,  F. Rob,  M. Schneider,  N. Sergueev,  
 S. M. Sharada,  S. Sharma,  D. W. Small,  T. Stauch,  T. Stein,  
 Yu-Chuan Su,  A. J. W. Thom,  A. Tkatchenko,  T. Tsuchimochi,  N. M. Tubman,  
 L. Vogt,  M. L. Vidal,  O. Vydrov,  M. A. Watson,  J. Wenzel,  
 M. de Wergifosse,  T. A. Wesolowski,  A. White,  J. Witte,  A. Yamada,  
 Jun Yang,  K. Yao,  S. Yeganeh,  S. R. Yost,  Zhi-Qiang You,  A. Zech,  
 Igor Ying Zhang,  Xing Zhang,  Yan Zhao,  Ying Zhu,  B. R. Brooks,  
 G. K. L. Chan,  C. J. Cramer,  M. S. Gordon,  W. J. Hehre,  A. Klamt,  
 M. W. Schmidt,  C. D. Sherrill,  D. G. Truhlar,  A. Aspuru-Guzik,  R. Baer,  
 A. T. Bell,  N. A. Besley,  Jeng-Da Chai,  R. A. DiStasio Jr.,  A. Dreuw,  
 B. D. Dunietz,  T. R. Furlani,  Chao-Ping Hsu,  Yousung Jung,  Jing Kong,  
 D. S. Lambrecht,  WanZhen Liang,  C. Ochsenfeld,  V. A. Rassolov,  
 L. V. Slipchenko,  J. E. Subotnik,  T. Van Voorhis,  J. M. Herbert,  
 A. I. Krylov,  P. M. W. Gill,  M. Head-Gordon

 Contributors to earlier versions of Q-Chem not listed above: 
 R. D. Adamson,  B. Austin,  J. Baker,  G. J. O. Beran,  K. Brandhorst,  
 S. T. Brown,  E. F. C. Byrd,  A. K. Chakraborty,  C.-L. Cheng,  
 Siu Hung Chien,  D. M. Chipman,  D. L. Crittenden,  H. Dachsel,  
 R. J. Doerksen,  A. D. Dutoi,  L. Fusti-Molnar,  W. A. Goddard III,  
 A. Golubeva-Zadorozhnaya,  S. R. Gwaltney,  G. Hawkins,  A. Heyden,  
 S. Hirata,  G. Kedziora,  F. J. Keil,  C. Kelley,  Jihan Kim,  R. A. King,  
 R. Z. Khaliullin,  P. P. Korambath,  W. Kurlancheek,  A. M. Lee,  M. S. Lee,  
 S. V. Levchenko,  Ching Yeh Lin,  D. Liotard,  R. C. Lochan,  I. Lotan,  
 P. E. Maslen,  N. Nair,  D. P. O'Neill,  D. Neuhauser,  E. Neuscamman,  
 C. M. Oana,  R. Olson,  B. Peters,  R. Peverati,  P. A. Pieniazek,  
 Y. M. Rhee,  J. Ritchie,  M. A. Rohrdanz,  E. Rosta,  N. J. Russ,  
 H. F. Schaefer III,  N. E. Schultz,  N. Shenvi,  A. C. Simmonett,  A. Sodt,  
 D. Stuck,  K. S. Thanthiriwatte,  V. Vanovschi,  Tao Wang,  A. Warshel,  
 C. F. Williams,  Q. Wu,  X. Xu,  W. Zhang

 Please cite Q-Chem as follows:
 Y. Shao et al., Mol. Phys. 113, 184-215 (2015)
 DOI: 10.1080/00268976.2014.952696

 Q-Chem 5.1.0 for Intel X86 EM64T Linux

 Parts of Q-Chem use Armadillo 8.300.2 (Tropical Shenanigans).
 http://arma.sourceforge.net/

 Q-Chem begins on Tue Feb 12 13:53:48 2019  

Host: edison06
0

     Scratch files written to /tmp/qchem14368//
 Apr1918  _RNUM -1
 Parallel job on  1  processors
Processing $rem in /global/common/edison/software/qchem/5.1beta/config/preferences.
 MEM_TOTAL  2000 
 Now reading second FSM geometry

Checking the input file for inconsistencies... 	...done.

--------------------------------------------------------------
User input:
--------------------------------------------------------------
$molecule
0 1
C     -0.3692809649     -0.9529450524      -0.4589077519
C     -0.8857909223     -1.4055566910      -1.7811102250
O      1.0027227000     -0.6281343299      -0.5580921576
O     -1.0381804200      0.2025636466       0.0194089312
O     -0.8074686386     -0.5372093526      -2.8193526740
C     -1.4707450410     -2.5619161720      -2.1777123990
C      1.2106112270      0.5876010094       0.1498201808
C     -0.1213085104      1.2903363340      -0.0310390564
C     -1.3521237660     -1.1531044250      -3.8947989220
C     -1.7759138800     -2.3972483440      -3.5677448330
H     -0.5302594720     -1.7539609820       0.2723197974
H     -1.6614345860     -3.4230935020      -1.5565040270
H      1.4193054850      0.3872363729       1.2071588330
H      2.0533221400      1.1078629590      -0.3034698128
H     -0.3679251307      1.9858564880       0.7703628695
H     -0.1788738580      1.7986177460      -0.9993873361
H     -1.3636301860     -0.5845107752      -4.8098628770
H     -2.2467858810     -3.1079775870      -4.2279578080
C      3.9258302030      2.9999606700       3.2541277880
C      3.1073277890      1.7973603670       3.3359302590
O      3.2963077530      4.1436224310       3.0208454100
O      5.1179575800      2.9516493780       3.3932089710
C      2.4886507050      0.7706049264       3.4145186070
C      1.8693863500      4.1643735320       2.8424723280
C      1.7282141050     -0.4720819452       3.4288285290
O      1.5587729620     -1.0622354580       4.6042490040
O      1.2763884990     -0.9367482564       2.4174842980
C      2.1269652800     -0.4891491017       5.7945411310
H      1.5813555700      3.5560456990       1.9842901120
H      1.3659547310      3.8153163760       3.7449949560
H      1.6220516730      5.2061601820       2.6589236450
H      3.2109194310     -0.4094644518       5.7029569070
H      1.6870113030      0.4884571875       5.9963015010
H      1.8721538600     -1.1821379150       6.5913509600
****
C      0.5174502238      2.9633812647      0.7595124903
C      0.4129879014      1.4927463418      0.4226701991
O     -0.7551573125      3.5141723792      1.0325476239
O      1.0313970652      3.6483494000     -0.3434129877
O      0.1773474818      0.7007599753      1.5813858163
C      1.6654266737      0.7981815184     -0.1526829175
C     -0.8663180882      4.7587766790      0.3347925599
C      0.5369571797      4.9752402522     -0.2250985194
C      0.1657902249     -0.5556045256      0.8974588677
C      1.5115185830     -0.4823411532      0.1536034204
H      1.1621668649      3.0893275825      1.6419404533
H      2.4295815978      1.2969939326     -0.7283983894
H     -1.6125870111      4.6538011810     -0.4569500070
H     -1.1711995065      5.5396017128      1.0324790545
H      0.5502367065      5.4363805973     -1.2104309075
H      1.1631982703      5.5512940019      0.4657199277
H     -0.0055362312     -1.3860312295      1.5739686359
H      2.1287101622     -1.3304833309     -0.1016106856
C     -1.3935176893      1.8268271653     -1.5506413330
C     -0.7903695264      1.0248882256     -0.4492848095
O     -2.6060536501      2.3420634227     -1.3908411995
O     -0.7665130636      2.0357436174     -2.5573258237
C     -0.9360697099     -0.2623152156     -0.1433399705
C     -3.3745192570      2.0495050662     -0.2109197026
C     -1.8443201662     -1.2258404977     -0.7758556540
O     -1.5543115175     -2.4756935183     -0.4129306740
O     -2.7405536219     -0.9281144281     -1.5312325097
C     -2.3686926322     -3.5084719930     -0.9829115044
H     -3.6903717161      1.0066509697     -0.2271469405
H     -2.7968308876      2.2761599775      0.6850330083
H     -4.2430633743      2.7010852872     -0.2701031316
H     -1.9877432147     -4.4392005898     -0.5708415432
H     -3.4126865367     -3.3632716896     -0.7033660743
H     -2.2767754973     -3.5044806325     -2.0695735674
$end

$rem
job_type = fsm
method = wb97xd
basis = 6-311++g(d,p)
max_scf_cycles = 200
gen_scfman = true
scf_algorithm = diis_gdm
scf_guess = true
fsm_ngrad = 3
fsm_nnode = 18
fsm_mode = 2
fsm_opt_mode = 2
$end

--------------------------------------------------------------
 ----------------------------------------------------------------
             Standard Nuclear Orientation (Angstroms)
    I     Atom           X                Y                Z
 ----------------------------------------------------------------
    1      C      -0.3692809649    -0.9529450524    -0.4589077519
    2      C      -0.8857909223    -1.4055566910    -1.7811102250
    3      O       1.0027227000    -0.6281343299    -0.5580921576
    4      O      -1.0381804200     0.2025636466     0.0194089312
    5      O      -0.8074686386    -0.5372093526    -2.8193526740
    6      C      -1.4707450410    -2.5619161720    -2.1777123990
    7      C       1.2106112270     0.5876010094     0.1498201808
    8      C      -0.1213085104     1.2903363340    -0.0310390564
    9      C      -1.3521237660    -1.1531044250    -3.8947989220
   10      C      -1.7759138800    -2.3972483440    -3.5677448330
   11      H      -0.5302594720    -1.7539609820     0.2723197974
   12      H      -1.6614345860    -3.4230935020    -1.5565040270
   13      H       1.4193054850     0.3872363729     1.2071588330
   14      H       2.0533221400     1.1078629590    -0.3034698128
   15      H      -0.3679251307     1.9858564880     0.7703628695
   16      H      -0.1788738580     1.7986177460    -0.9993873361
   17      H      -1.3636301860    -0.5845107752    -4.8098628770
   18      H      -2.2467858810    -3.1079775870    -4.2279578080
   19      C       3.9258302030     2.9999606700     3.2541277880
   20      C       3.1073277890     1.7973603670     3.3359302590
   21      O       3.2963077530     4.1436224310     3.0208454100
   22      O       5.1179575800     2.9516493780     3.3932089710
   23      C       2.4886507050     0.7706049264     3.4145186070
   24      C       1.8693863500     4.1643735320     2.8424723280
   25      C       1.7282141050    -0.4720819452     3.4288285290
   26      O       1.5587729620    -1.0622354580     4.6042490040
   27      O       1.2763884990    -0.9367482564     2.4174842980
   28      C       2.1269652800    -0.4891491017     5.7945411310
   29      H       1.5813555700     3.5560456990     1.9842901120
   30      H       1.3659547310     3.8153163760     3.7449949560
   31      H       1.6220516730     5.2061601820     2.6589236450
   32      H       3.2109194310    -0.4094644518     5.7029569070
   33      H       1.6870113030     0.4884571875     5.9963015010
   34      H       1.8721538600    -1.1821379150     6.5913509600
 ----------------------------------------------------------------
 Nuclear Repulsion Energy =  1499.8051273730 hartrees
 There are       74 alpha and       74 beta electrons
 Requested basis set is 6-311++G(d,p)
 There are 190 shells and 538 basis functions

 Total QAlloc Memory Limit   2000 MB
 Mega-Array Size       188 MB
 MEM_STATIC part       192 MB
 beginning FSman 

*******************************************
*******************************************
******** Starting FSM Calculation *********
*******************************************
*******************************************
-FSM parameters:
 Maximum displacement of each coordinate during optimization (Angstrom)      0.05
 Maximum optimization steps for each new node                                3
 The scaling factor for optimization (hartrees/Angstrom^2)                   1.75
 The number of LST interpolations used for reparameterization                100
-Aligning product structure to maximum coincidence with the reactant structure
 Total R --> P Distance 19.461259
 New node interpolation distace (Angstroms): 1.08
-Performing force calculation on reactant structure in state:0
 ----------------------------------------------------------------
             Standard Nuclear Orientation (Angstroms)
    I     Atom           X                Y                Z
 ----------------------------------------------------------------
    1      C      -0.3692809649    -0.9529450524    -0.4589077519
    2      C      -0.8857909223    -1.4055566910    -1.7811102250
    3      O       1.0027227000    -0.6281343299    -0.5580921576
    4      O      -1.0381804200     0.2025636466     0.0194089312
    5      O      -0.8074686386    -0.5372093526    -2.8193526740
    6      C      -1.4707450410    -2.5619161720    -2.1777123990
    7      C       1.2106112270     0.5876010094     0.1498201808
    8      C      -0.1213085104     1.2903363340    -0.0310390564
    9      C      -1.3521237660    -1.1531044250    -3.8947989220
   10      C      -1.7759138800    -2.3972483440    -3.5677448330
   11      H      -0.5302594720    -1.7539609820     0.2723197974
   12      H      -1.6614345860    -3.4230935020    -1.5565040270
   13      H       1.4193054850     0.3872363729     1.2071588330
   14      H       2.0533221400     1.1078629590    -0.3034698128
   15      H      -0.3679251307     1.9858564880     0.7703628695
   16      H      -0.1788738580     1.7986177460    -0.9993873361
   17      H      -1.3636301860    -0.5845107752    -4.8098628770
   18      H      -2.2467858810    -3.1079775870    -4.2279578080
   19      C       3.9258302030     2.9999606700     3.2541277880
   20      C       3.1073277890     1.7973603670     3.3359302590
   21      O       3.2963077530     4.1436224310     3.0208454100
   22      O       5.1179575800     2.9516493780     3.3932089710
   23      C       2.4886507050     0.7706049264     3.4145186070
   24      C       1.8693863500     4.1643735320     2.8424723280
   25      C       1.7282141050    -0.4720819452     3.4288285290
   26      O       1.5587729620    -1.0622354580     4.6042490040
   27      O       1.2763884990    -0.9367482564     2.4174842980
   28      C       2.1269652800    -0.4891491017     5.7945411310
   29      H       1.5813555700     3.5560456990     1.9842901120
   30      H       1.3659547310     3.8153163760     3.7449949560
   31      H       1.6220516730     5.2061601820     2.6589236450
   32      H       3.2109194310    -0.4094644518     5.7029569070
   33      H       1.6870113030     0.4884571875     5.9963015010
   34      H       1.8721538600    -1.1821379150     6.5913509600
 ----------------------------------------------------------------
 Nuclear Repulsion Energy =  1499.8051273730 hartrees
 There are       74 alpha and       74 beta electrons
 Requested basis set is 6-311++G(d,p)
 There are 190 shells and 538 basis functions
 A cutoff of  1.0D-12 yielded  12824 shell pairs
 There are    102561 function pairs (    109293 Cartesian)
 
 -------------------------------------------------------
 OpenMP Integral Computing Module                       
 Release: version 1.0, May 2013, Q-Chem Inc. Pittsburgh 
 -------------------------------------------------------
 Integral Job Info:
 Integral job number is                      11
 Integral operator is                         1
 short-range coefficients              22203600
 long-range coefficients              100000000
 Omega coefficients                         200
 if combine SR and LR in K                    1
 Integral screening is                        0
 Integral computing path is                   2
 max size of driver memory is            800000
 size of driver memory is                593474
 size of scratch memory is              2428936
 max col of scratch BK array               1296
 max len of scratch array in speh3          155
 max len of scratch index in speh4           18
 max int batch size is                      520
 min int batch size is                       52
 fixed nKL is                                52
 max L of basis functions is                  2
 order of int derivative is                   0
 number of shells is                        190
 number of basis is                         558
 number of cartesian basis is               558
 number of contracted shell pairs         12824
 number of primitive shell pairs          29487
 maxK2 (contraction) of shell pair           36
 max number of K2 of shell pair               1
 max number of CS2 of shell pair           2405
 max number of PS2 of shell pair           4926
 mem total for path MDJ                  697394
 -------------------------------------------------------
 Smallest overlap matrix eigenvalue = 2.07E-08
 Linear dependence detected in AO basis
 Number of orthogonalized atomic orbitals = 537
 Maximum deviation from orthogonality = 1.885E-10

 Scale SEOQF with 1.000000e-02/1.000000e-02/1.000000e-02

 Standard Electronic Orientation quadrupole field applied
 Nucleus-field energy     =    -0.0000000078 hartrees
 Guess MOs from core Hamiltonian diagonalization

 -----------------------------------------------------------------------
  General SCF calculation program by
  Eric Jon Sundstrom, Paul Horn, Yuezhi Mao, Dmitri Zuev, Alec White,
  David Stuck, Shaama M.S., Shane Yost, Joonho Lee, David Small,
  Daniel Levine, Susi Lehtola, Hugh Burton, Evgeny Epifanovsky
 -----------------------------------------------------------------------
 Exchange:     0.2220 Hartree-Fock + 1.0000 wB97X-D + LR-HF
 Correlation:  1.0000 wB97X-D
 Using SG-2 standard quadrature grid
 Dispersion:   Grimme D
 using 24 threads for integral computing
 -------------------------------------------------------
 OpenMP Integral computing Module                
 Release: version 1.0, May 2013, Q-Chem Inc. Pittsburgh 
 -------------------------------------------------------
 using 24 threads for integral computing
 -------------------------------------------------------
 OpenMP Integral computing Module                
 Release: version 1.0, May 2013, Q-Chem Inc. Pittsburgh 
 -------------------------------------------------------
 -------------------------------------------------------
 OpenMP BLAS3 based DFT computing Module                
 Release: version 1.0, May 2013, Q-Chem Inc. Pittsburgh 
 -------------------------------------------------------
 A restricted SCF calculation will be
 performed using DIIS, GDM
 SCF converges when RMS gradient is below 1.0e-08
 ---------------------------------------
  Cycle       Energy         DIIS error
 ---------------------------------------
    1    -642.2791534915      9.96e-02  
    2    -143.1427108955      9.95e-02  
    3    -777.3196188105      5.13e-02  
    4    -250.1157422951      1.03e-01  
    5    -751.7496827754      5.33e-02  
    6    -906.8075587157      3.59e-02  
    7    -517.4412307805      7.26e-02  
    8    -535.6127882852      7.30e-02  
    9    -545.9436066866      7.65e-02  
   10    -549.3503207986      7.57e-02  
   11    -558.0973258762      7.05e-02  
   12    -558.8626454495      7.01e-02  
   13    -560.7298330677      6.90e-02  
   14    -560.7069127362      6.90e-02  
   15    -560.7216422781      6.90e-02  
   16    -560.8109731440      6.90e-02  
   17    -592.7115475453      6.30e-02  
   18    -499.4937768136      7.75e-02  
   19    -832.3212102348      5.22e-02  
   20    -943.5895105612      2.72e-02  
   21    -664.4946346233      7.13e-02  
   22    -324.3883312896      8.83e-02  
   23    -467.1347640892      7.68e-02  
   24    -472.8447752125      7.64e-02  
   25    -472.8612140106      7.64e-02  
   26    -473.6232657586      7.63e-02  
   27    -506.8903013999      7.42e-02  
   28    -508.9225638067      7.39e-02  
   29    -509.2906245706      7.38e-02  
   30    -509.2908134601      7.38e-02  
   31    -509.2579673150      7.38e-02  
   32    -509.5421224260      7.38e-02  
   33    -518.9670872566      7.31e-02  
   34    -665.5147656556      6.69e-02  
   35    -426.8084344541      8.98e-02  
   36       9.6269905335      9.83e-02  
   37    -776.2624387817      5.76e-02  
   38    -903.3184292416      3.72e-02  
   39    -648.6921031273      5.52e-02  
   40    -947.2845993975      2.77e-02  
   41    -941.7413274272      3.33e-02  
   42   -1026.0924729121      8.89e-03  Done DIIS. Switching to GDM
 ---------------------------------------
  Cycle       Energy        RMS Gradient
 ---------------------------------------
    1   -1026.0924729121      6.13e-01   Descent step
    2   -1027.6866112217      3.73e-01   Descent step
    3   -1028.5880214873      1.68e-01   Descent step
    4   -1029.0254848892      3.93e-01   Descent step
    5   -1029.2140109304      2.21e-01   Descent step
    6   -1029.2243119981      7.09e-01   Descent step
    7   -1029.1809264644      2.83e-01  Line search: overstep
    8   -1029.4107351266      1.29e-01   Dog-leg BFGS step
    9   -1029.5707684867      3.54e-01   Descent step
   10   -1029.9077346168      4.07e-01   Descent step
   11   -1030.1185221189      4.64e-02   Dog-leg BFGS step
   12   -1030.1109783821      5.06e-02  Line search: overstep
   13   -1030.1504495058      3.01e-02   Normal BFGS step
   14   -1030.1248573424      5.83e-02  Line search: overstep
   15   -1030.1548566011      2.84e-02   Dog-leg BFGS step
   16   -1030.1144538119      8.52e-02  Line search: overstep
   17   -1030.1595392450      8.67e-03   Normal BFGS step
   18   -1030.1609281711      1.40e-03   Normal BFGS step
   19   -1030.1608254137      2.29e-03  Line search: overstep
   20   -1030.1610578174      1.28e-03   Normal BFGS step
   21   -1030.1609685557      2.13e-03  Line search: overstep
   22   -1030.1610910351      9.63e-04   Normal BFGS step
   23   -1030.1611085548      6.40e-04   Normal BFGS step
   24   -1030.1611205193      3.27e-04   Normal BFGS step
   25   -1030.1611241670      1.34e-04   Normal BFGS step
   26   -1030.1611251771      1.27e-04   Normal BFGS step
   27   -1030.1611254372      2.70e-05   Normal BFGS step
   28   -1030.1611254719      2.77e-05   Normal BFGS step
   29   -1030.1611254855      9.77e-06   Normal BFGS step
   30   -1030.1611254867      4.24e-06   Normal BFGS step
   31   -1030.1611254874      1.34e-06   Normal BFGS step
   32   -1030.1611254874      6.25e-07   Normal BFGS step
   33   -1030.1611254874      3.78e-07   Normal BFGS step
   34   -1030.1611254874      1.56e-07   Normal BFGS step
   35   -1030.1611254874      8.24e-08   Normal BFGS step
   36   -1030.1611254874      3.99e-08   Normal BFGS step
   37   -1030.1611254874      1.33e-08   Normal BFGS step
   38   -1030.1611254874      7.78e-09  Convergence criterion met
 ---------------------------------------
 SCF time:   CPU 11669.71s  wall 638.00s 
 SCF   energy in the final basis set =    -1030.1611254874
 
 --------------------------------------------------------------
 
                    Orbital Energies (a.u.)
 --------------------------------------------------------------
 
 Alpha MOs
 -- Occupied --
-19.333 -19.332 -19.311 -19.270 -19.268 -19.252 -19.249 -10.475
-10.471 -10.385 -10.375 -10.374 -10.358 -10.355 -10.331 -10.329
-10.329 -10.316 -10.281 -10.281  -1.256  -1.253  -1.220  -1.191
 -1.172  -1.166  -1.094  -0.938  -0.904  -0.889  -0.870  -0.867
 -0.833  -0.815  -0.747  -0.733  -0.727  -0.697  -0.683  -0.675
 -0.645  -0.632  -0.618  -0.616  -0.613  -0.601  -0.596  -0.585
 -0.553  -0.550  -0.546  -0.539  -0.537  -0.535  -0.527  -0.505
 -0.499  -0.492  -0.481  -0.479  -0.475  -0.456  -0.444  -0.439
 -0.425  -0.422  -0.420  -0.416  -0.401  -0.397  -0.361  -0.352
 -0.337  -0.304
 -- Virtual --
 -0.024  -0.003   0.026   0.038   0.046   0.055   0.058   0.059
  0.061   0.070   0.071   0.072   0.073   0.090   0.094   0.096
  0.099   0.104   0.114   0.116   0.118   0.122   0.128   0.130
  0.134   0.135   0.140   0.142   0.147   0.148   0.151   0.156
  0.161   0.163   0.166   0.170   0.170   0.173   0.175   0.179
  0.183   0.183   0.185   0.187   0.190   0.191   0.196   0.197
  0.200   0.202   0.208   0.211   0.211   0.215   0.219   0.221
  0.225   0.227   0.230   0.233   0.238   0.242   0.244   0.248
  0.254   0.258   0.260   0.268   0.272   0.275   0.278   0.286
  0.287   0.288   0.298   0.300   0.306   0.310   0.312   0.317
  0.325   0.331   0.337   0.340   0.341   0.345   0.347   0.351
  0.355   0.363   0.364   0.366   0.371   0.375   0.376   0.381
  0.384   0.387   0.391   0.397   0.399   0.401   0.404   0.408
  0.409   0.417   0.426   0.429   0.433   0.435   0.442   0.447
  0.452   0.460   0.461   0.467   0.471   0.477   0.488   0.490
  0.492   0.495   0.506   0.514   0.520   0.527   0.531   0.538
  0.547   0.552   0.558   0.572   0.578   0.599   0.604   0.608
  0.619   0.631   0.642   0.644   0.647   0.654   0.659   0.662
  0.668   0.675   0.685   0.690   0.696   0.700   0.709   0.710
  0.721   0.724   0.734   0.741   0.748   0.754   0.762   0.763
  0.775   0.786   0.794   0.802   0.812   0.823   0.823   0.833
  0.837   0.841   0.846   0.848   0.851   0.857   0.872   0.874
  0.878   0.895   0.900   0.909   0.925   0.941   0.947   0.955
  0.961   0.977   0.993   1.023   1.029   1.041   1.051   1.062
  1.068   1.076   1.079   1.089   1.096   1.102   1.109   1.130
  1.135   1.159   1.172   1.175   1.182   1.184   1.201   1.211
  1.228   1.235   1.252   1.255   1.261   1.275   1.284   1.291
  1.304   1.304   1.314   1.316   1.327   1.330   1.337   1.343
  1.353   1.363   1.375   1.388   1.399   1.412   1.426   1.435
  1.445   1.450   1.458   1.463   1.480   1.494   1.501   1.523
  1.541   1.577   1.589   1.589   1.600   1.603   1.606   1.612
  1.637   1.647   1.653   1.657   1.680   1.685   1.691   1.698
  1.717   1.723   1.726   1.737   1.750   1.758   1.761   1.766
  1.771   1.775   1.777   1.805   1.810   1.816   1.831   1.835
  1.844   1.853   1.856   1.865   1.874   1.884   1.901   1.907
  1.927   1.939   1.947   1.955   1.966   1.974   1.979   1.986
  2.015   2.034   2.051   2.058   2.065   2.067   2.072   2.088
  2.102   2.117   2.131   2.140   2.148   2.174   2.187   2.198
  2.241   2.246   2.251   2.274   2.302   2.331   2.362   2.372
  2.395   2.444   2.452   2.464   2.477   2.515   2.521   2.555
  2.563   2.575   2.584   2.592   2.600   2.606   2.614   2.628
  2.630   2.644   2.696   2.718   2.749   2.755   2.769   2.772
  2.786   2.792   2.805   2.822   2.834   2.836   2.850   2.866
  2.869   2.882   2.896   2.899   2.907   2.910   2.932   2.939
  2.948   2.965   2.974   2.986   2.997   3.015   3.033   3.057
  3.063   3.076   3.097   3.099   3.108   3.114   3.115   3.132
  3.157   3.163   3.190   3.218   3.237   3.252   3.260   3.269
  3.275   3.295   3.299   3.311   3.312   3.326   3.338   3.371
  3.407   3.428   3.435   3.443   3.448   3.459   3.518   3.528
  3.566   3.615   3.638   3.675   3.678   3.689   3.767   3.778
  3.831   3.846   3.850   3.851   3.887   3.956   4.030   4.070
  4.096   4.123   4.133   4.148   4.156   4.184   4.208   4.237
  4.245   4.270   4.325   4.378   4.409   4.551   5.089   5.104
  5.121   5.152   5.160   5.243   5.262   5.322   5.362   5.406
  5.430   5.548   5.592   5.615   5.675   5.699   5.717   5.871
  5.956   5.976   6.034  23.604  23.833  23.964  23.976  23.982
 24.001  24.017  24.019  24.024  24.087  24.312  24.377  25.176
 49.999  50.015  50.070  50.081  50.142  50.149  50.157
 --------------------------------------------------------------
 
          Ground-State Mulliken Net Atomic Charges

     Atom                 Charge (a.u.)
  ----------------------------------------
      1 C                    -2.068434
      2 C                     0.897915
      3 O                     0.011324
      4 O                     0.027292
      5 O                     0.039556
      6 C                     0.283989
      7 C                    -0.142018
      8 C                    -0.442281
      9 C                     0.048629
     10 C                    -0.462092
     11 H                     0.259314
     12 H                     0.227636
     13 H                     0.236792
     14 H                     0.197928
     15 H                     0.159723
     16 H                     0.178246
     17 H                     0.235295
     18 H                     0.215252
     19 C                    -0.084844
     20 C                     0.257723
     21 O                    -0.063918
     22 O                    -0.221630
     23 C                     0.358454
     24 C                    -0.499960
     25 C                    -0.167060
     26 O                    -0.032845
     27 O                    -0.191401
     28 C                    -0.440148
     29 H                     0.224403
     30 H                     0.177152
     31 H                     0.201823
     32 H                     0.198302
     33 H                     0.173087
     34 H                     0.206797
  ----------------------------------------
  Sum of atomic charges =     0.000000

 -----------------------------------------------------------------
                    Cartesian Multipole Moments
 -----------------------------------------------------------------
    Charge (ESU x 10^10)
                 0.0000
    Dipole Moment (Debye)
         X      -1.8836      Y       1.9645      Z       4.0163
       Tot       4.8516
    Quadrupole Moments (Debye-Ang)
        XX    -142.3009     XY      -7.7354     YY    -108.2836
        XZ       2.6608     YZ       2.6953     ZZ     -80.4487
    Octopole Moments (Debye-Ang^2)
       XXX    -496.0579    XXY    -139.1714    XYY    -180.5049
       YYY    -107.8730    XXZ    -185.5092    XYZ     -61.2814
       YYZ    -127.0965    XZZ    -103.7936    YZZ     -48.8162
       ZZZ    -197.3996
    Hexadecapole Moments (Debye-Ang^3)
      XXXX   -4307.7136   XXXY   -1632.9953   XXYY   -1372.6732
      XYYY   -1191.9820   YYYY   -2770.5790   XXXZ   -2437.5443
      XXYZ    -714.3792   XYYZ    -776.1304   YYYZ   -1062.6363
      XXZZ   -1771.4656   XYZZ    -508.7952   YYZZ   -1561.6587
      XZZZ   -1491.7930   YZZZ   -1165.7444   ZZZZ   -4946.0075
 -----------------------------------------------------------------
 Calculating analytic gradient of the SCF energy
 Gradient of SCF Energy
            1           2           3           4           5           6
    1  -0.0035058  -0.0000069   0.0010141  -0.0001964   0.0007680  -0.0000431
    2  -0.0013440  -0.0012835  -0.0011492  -0.0027837   0.0014461  -0.0004750
    3  -0.0017484   0.0015625  -0.0019448  -0.0000547   0.0004523   0.0005044
            7           8           9          10          11          12
    1  -0.0019627   0.0005173  -0.0005447   0.0000385  -0.0002928  -0.0000525
    2  -0.0061006   0.0043135  -0.0002105   0.0000416  -0.0006284  -0.0002041
    3   0.0021914   0.0029670  -0.0018395  -0.0001140  -0.0005155   0.0000319
           13          14          15          16          17          18
    1   0.0023842  -0.0003324   0.0009957   0.0012218  -0.0000737  -0.0000595
    2  -0.0055047  -0.0005360  -0.0005560  -0.0007675   0.0000653  -0.0000356
    3   0.0167508   0.0034679  -0.0011932   0.0004862  -0.0001224   0.0000061
           19          20          21          22          23          24
    1  -0.0117070   0.0005922   0.0062078   0.0076367  -0.0005414  -0.0045060
    2   0.0011088   0.0001789  -0.0037567   0.0009406  -0.0001372   0.0001988
    3  -0.0012148  -0.0000509   0.0012651   0.0004919  -0.0012761  -0.0005552
           25          26          27          28          29          30
    1   0.0024548  -0.0007782  -0.0014235   0.0011627   0.0006575   0.0007413
    2   0.0056724  -0.0006220   0.0109347   0.0014127   0.0004524   0.0002580
    3   0.0027205  -0.0045194  -0.0204792   0.0030828   0.0003339  -0.0001042
           31          32          33          34
    1   0.0000813  -0.0004491  -0.0001448   0.0001469
    2  -0.0002195  -0.0004165  -0.0004724   0.0001794
    3   0.0001484  -0.0002762  -0.0003747  -0.0000795
 Max gradient component =       2.048E-02
 RMS gradient           =       3.638E-03
 Gradient time:  CPU 406.26 s  wall 34.95 s
-Performing force calculation on product structure in state0
 ----------------------------------------------------------------
             Standard Nuclear Orientation (Angstroms)
    I     Atom           X                Y                Z
 ----------------------------------------------------------------
    1      C       0.2472952098     0.8958228607    -1.1891109116
    2      C       0.3474500915    -0.1351801190    -0.0872288679
    3      O       1.2467159046     1.8856395450    -1.0517421244
    4      O      -0.9858827564     1.5441984927    -1.0961138381
    5      O       1.4380438466    -1.0257154686    -0.2944551836
    6      C      -0.8176829845    -1.1355802472     0.0667804818
    7      C       0.6383041699     3.1682169917    -1.2336458481
    8      C      -0.7813913177     2.8249735764    -1.6765506426
    9      C       1.1995328854    -1.8196007394     0.8713921900
   10      C      -0.2790312944    -2.1919021744     0.6594656229
   11      H       0.3630422124     0.3987877471    -2.1636671488
   12      H      -1.8401287606    -0.9286711716    -0.2088789940
   13      H       0.6529823659     3.7038414336    -0.2809210921
   14      H       1.1943544051     3.7299895507    -1.9850622341
   15      H      -1.5384404088     3.5032601361    -1.2885935633
   16      H      -0.8600294561     2.7617855220    -2.7679118413
   17      H       1.9239143713    -2.6204593426     0.9739772383
   18      H      -0.7466845670    -3.1029854269     1.0009807215
   19      C       0.2429951085     1.6550896687     1.9259909642
   20      C       0.6970256370     0.3589072809     1.3483687192
   21      O       1.1288636282     2.6222203924     2.1288285075
   22      O      -0.9235583531     1.8319437830     2.1669685395
   23      C       1.2307336607    -0.7067781096     1.9409848521
   24      C       2.5283806669     2.3929968215     1.8897612935
   25      C       1.6173021346    -0.8356414128     3.3507135546
   26      O       1.8718329830    -2.1051200285     3.6694457651
   27      O       1.6942851489     0.0884970243     4.1269294900
   28      C       2.2456692259    -2.3563164799     5.0302811450
   29      H       2.9230995584     1.7112572858     2.6427546320
   30      H       2.6838107073     2.0063540863     0.8826980090
   31      H       2.9964484345     3.3692155726     1.9914365674
   32      H       2.4134439947    -3.4283287574     5.0920964848
   33      H       3.1561470685    -1.8099064068     5.2785112365
   34      H       1.4426445678    -2.0546609231     5.7036714133
 ----------------------------------------------------------------
 Nuclear Repulsion Energy =  1731.7203374840 hartrees
 There are       74 alpha and       74 beta electrons
 Nucleus-field energy     =    -0.0000000037 hartrees
 Requested basis set is 6-311++G(d,p)
 There are 190 shells and 538 basis functions
 A cutoff of  1.0D-12 yielded  14254 shell pairs
 There are    117783 function pairs (    126134 Cartesian)
 Smallest overlap matrix eigenvalue = 2.13E-07
 Linear dependence detected in AO basis
 Number of orthogonalized atomic orbitals = 536
 Maximum deviation from orthogonality = 2.499E-10
 Guess MOs from core Hamiltonian diagonalization

 -----------------------------------------------------------------------
  General SCF calculation program by
  Eric Jon Sundstrom, Paul Horn, Yuezhi Mao, Dmitri Zuev, Alec White,
  David Stuck, Shaama M.S., Shane Yost, Joonho Lee, David Small,
  Daniel Levine, Susi Lehtola, Hugh Burton, Evgeny Epifanovsky
 -----------------------------------------------------------------------
 Exchange:     0.2220 Hartree-Fock + 1.0000 wB97X-D + LR-HF
 Correlation:  1.0000 wB97X-D
 Using SG-2 standard quadrature grid
 Dispersion:   Grimme D
 using 24 threads for integral computing
 -------------------------------------------------------
 OpenMP Integral computing Module                
 Release: version 1.0, May 2013, Q-Chem Inc. Pittsburgh 
 -------------------------------------------------------
 using 24 threads for integral computing
 -------------------------------------------------------
 OpenMP Integral computing Module                
 Release: version 1.0, May 2013, Q-Chem Inc. Pittsburgh 
 -------------------------------------------------------
 -------------------------------------------------------
 OpenMP BLAS3 based DFT computing Module                
 Release: version 1.0, May 2013, Q-Chem Inc. Pittsburgh 
 -------------------------------------------------------
 A restricted SCF calculation will be
 performed using DIIS, GDM
 SCF converges when RMS gradient is below 1.0e-08
 ---------------------------------------
  Cycle       Energy         DIIS error
 ---------------------------------------
    1    -590.3765646307      9.99e-02  
    2     259.0809413731      1.18e-01  
    3    -653.9669831884      5.87e-02  
    4    -320.2414743572      1.06e-01  
    5    -771.4744943220      5.82e-02  
    6    -974.1014704394      3.76e-02  
    7    -931.3308521711      3.85e-02  
    8   -1020.8501806784      1.28e-02  
    9    -985.5231919955      2.80e-02  
   10   -1029.8003791498      3.85e-03  Done DIIS. Switching to GDM
 ---------------------------------------
  Cycle       Energy        RMS Gradient
 ---------------------------------------
    1   -1029.8003791498      1.01e-01   Descent step
    2   -1030.1753184164      2.78e-02   Normal BFGS step
    3   -1030.2108655013      2.14e-02   Normal BFGS step
    4   -1030.2185210533      1.34e-02   Normal BFGS step
    5   -1030.2210589604      3.19e-03   Normal BFGS step
    6   -1030.2212529190      3.42e-03   Normal BFGS step
    7   -1030.2214286072      6.29e-04   Normal BFGS step
    8   -1030.2214322860      2.81e-04   Normal BFGS step
    9   -1030.2214356206      1.52e-04   Normal BFGS step
   10   -1030.2214357364      1.04e-04   Normal BFGS step
   11   -1030.2214358491      1.16e-05   Normal BFGS step
   12   -1030.2214358517      1.46e-05   Normal BFGS step
   13   -1030.2214358537      1.85e-06   Normal BFGS step
   14   -1030.2214358538      8.69e-07   Normal BFGS step
   15   -1030.2214358539      7.46e-07   Normal BFGS step
   16   -1030.2214358539      2.17e-07   Normal BFGS step
   17   -1030.2214358539      5.99e-08   Normal BFGS step
   18   -1030.2214358539      5.56e-08   Normal BFGS step
   19   -1030.2214358539      2.29e-08   Normal BFGS step
   20   -1030.2214358539      7.74e-09  Convergence criterion met
 ---------------------------------------
 SCF time:   CPU 5634.65s  wall 316.00s 
 SCF   energy in the final basis set =    -1030.2214358539
 
 --------------------------------------------------------------
 
                    Orbital Energies (a.u.)
 --------------------------------------------------------------
 
 Alpha MOs
 -- Occupied --
-19.312 -19.294 -19.278 -19.273 -19.271 -19.245 -19.231 -10.433
-10.426 -10.403 -10.378 -10.367 -10.350 -10.349 -10.347 -10.333
-10.333 -10.319 -10.303 -10.302  -1.233  -1.225  -1.214  -1.193
 -1.138  -1.127  -1.121  -0.949  -0.915  -0.897  -0.862  -0.839
 -0.827  -0.762  -0.750  -0.739  -0.725  -0.682  -0.665  -0.655
 -0.645  -0.632  -0.622  -0.597  -0.593  -0.586  -0.578  -0.574
 -0.565  -0.558  -0.543  -0.536  -0.520  -0.515  -0.507  -0.506
 -0.501  -0.491  -0.488  -0.478  -0.462  -0.454  -0.447  -0.446
 -0.435  -0.407  -0.395  -0.387  -0.383  -0.377  -0.370  -0.363
 -0.357  -0.327
 -- Virtual --
 -0.007   0.036   0.040   0.048   0.054   0.058   0.060   0.063
  0.066   0.074   0.077   0.079   0.080   0.085   0.090   0.097
  0.106   0.110   0.118   0.121   0.132   0.136   0.136   0.139
  0.143   0.149   0.153   0.155   0.157   0.158   0.165   0.168
  0.171   0.172   0.174   0.178   0.181   0.185   0.186   0.186
  0.191   0.192   0.195   0.197   0.199   0.205   0.208   0.213
  0.217   0.217   0.219   0.221   0.224   0.227   0.232   0.237
  0.240   0.249   0.250   0.253   0.261   0.265   0.266   0.269
  0.272   0.275   0.280   0.284   0.291   0.297   0.299   0.303
  0.310   0.319   0.322   0.322   0.325   0.333   0.335   0.338
  0.346   0.348   0.354   0.355   0.357   0.361   0.365   0.370
  0.373   0.374   0.379   0.383   0.388   0.390   0.396   0.399
  0.401   0.405   0.409   0.419   0.422   0.424   0.431   0.433
  0.438   0.441   0.445   0.448   0.454   0.458   0.464   0.470
  0.470   0.477   0.479   0.487   0.489   0.497   0.502   0.510
  0.514   0.524   0.525   0.532   0.544   0.554   0.554   0.559
  0.572   0.588   0.593   0.603   0.609   0.616   0.624   0.632
  0.646   0.655   0.664   0.667   0.674   0.684   0.691   0.702
  0.707   0.711   0.719   0.726   0.728   0.728   0.739   0.744
  0.750   0.758   0.760   0.766   0.773   0.781   0.784   0.791
  0.794   0.802   0.805   0.819   0.824   0.829   0.832   0.838
  0.840   0.848   0.854   0.870   0.887   0.888   0.902   0.905
  0.919   0.928   0.935   0.953   0.963   0.980   0.984   1.000
  1.019   1.036   1.051   1.069   1.075   1.100   1.109   1.112
  1.123   1.133   1.137   1.143   1.160   1.169   1.182   1.191
  1.203   1.214   1.219   1.232   1.235   1.254   1.268   1.278
  1.282   1.297   1.307   1.316   1.324   1.347   1.351   1.356
  1.362   1.378   1.387   1.398   1.409   1.412   1.417   1.433
  1.444   1.448   1.471   1.475   1.483   1.499   1.512   1.515
  1.522   1.534   1.545   1.564   1.584   1.590   1.602   1.616
  1.617   1.619   1.633   1.640   1.648   1.654   1.670   1.682
  1.689   1.700   1.703   1.717   1.728   1.740   1.748   1.767
  1.774   1.777   1.784   1.792   1.799   1.807   1.810   1.818
  1.821   1.827   1.841   1.851   1.857   1.867   1.877   1.888
  1.890   1.917   1.919   1.924   1.940   1.946   1.959   1.970
  1.979   1.983   2.000   2.015   2.030   2.037   2.042   2.054
  2.067   2.078   2.089   2.109   2.129   2.129   2.138   2.153
  2.188   2.189   2.200   2.215   2.234   2.244   2.256   2.261
  2.277   2.287   2.299   2.316   2.325   2.342   2.355   2.367
  2.379   2.387   2.441   2.461   2.536   2.550   2.570   2.574
  2.581   2.587   2.609   2.626   2.629   2.643   2.647   2.659
  2.683   2.701   2.704   2.718   2.738   2.756   2.764   2.807
  2.815   2.836   2.843   2.859   2.868   2.901   2.904   2.929
  2.937   2.941   2.951   2.952   2.961   2.979   2.980   2.996
  3.000   3.009   3.016   3.037   3.048   3.071   3.082   3.095
  3.104   3.117   3.133   3.147   3.162   3.168   3.179   3.191
  3.200   3.221   3.232   3.236   3.257   3.265   3.290   3.302
  3.312   3.319   3.351   3.362   3.382   3.386   3.398   3.424
  3.448   3.469   3.474   3.483   3.491   3.524   3.545   3.647
  3.689   3.711   3.724   3.795   3.809   3.870   3.878   3.920
  3.927   3.956   4.005   4.017   4.073   4.110   4.131   4.145
  4.152   4.169   4.178   4.221   4.226   4.256   4.307   4.320
  4.351   4.372   4.415   4.490   4.494   5.126   5.178   5.194
  5.252   5.281   5.313   5.324   5.333   5.385   5.478   5.502
  5.541   5.602   5.638   5.676   5.721   5.747   5.795   5.898
  5.997   6.032  23.755  23.895  23.925  23.931  23.978  24.017
 24.025  24.049  24.058  24.074  24.080  24.400  24.470  50.038
 50.079  50.102  50.118  50.123  50.184  50.207
 --------------------------------------------------------------
 
          Ground-State Mulliken Net Atomic Charges

     Atom                 Charge (a.u.)
  ----------------------------------------
      1 C                    -0.359056
      2 C                     0.196435
      3 O                    -0.073932
      4 O                     0.001893
      5 O                     0.033718
      6 C                    -0.079812
      7 C                    -0.141852
      8 C                    -0.253656
      9 C                     0.203383
     10 C                    -0.545798
     11 H                     0.241006
     12 H                     0.263993
     13 H                     0.182982
     14 H                     0.206092
     15 H                     0.201819
     16 H                     0.180162
     17 H                     0.334982
     18 H                     0.230779
     19 C                    -0.563158
     20 C                    -0.042434
     21 O                     0.023131
     22 O                    -0.122133
     23 C                    -0.369436
     24 C                    -0.434147
     25 C                     0.053653
     26 O                    -0.028449
     27 O                    -0.235539
     28 C                    -0.294287
     29 H                     0.184711
     30 H                     0.223735
     31 H                     0.207741
     32 H                     0.173629
     33 H                     0.194258
     34 H                     0.205590
  ----------------------------------------
  Sum of atomic charges =     0.000000

 -----------------------------------------------------------------
                    Cartesian Multipole Moments
 -----------------------------------------------------------------
    Charge (ESU x 10^10)
                 0.0000
    Dipole Moment (Debye)
         X       2.0024      Y      -1.7584      Z      -1.6308
       Tot       3.1243
    Quadrupole Moments (Debye-Ang)
        XX    -112.2447     XY       1.7496     YY    -100.2853
        XZ      12.3103     YZ     -23.6605     ZZ    -111.6721
    Octopole Moments (Debye-Ang^2)
       XXX    -240.5494    XXY     -45.5863    XYY     -64.0990
       YYY    -113.0852    XXZ    -103.3535    XYZ      -9.7965
       YYZ    -130.7277    XZZ     -53.2800    YZZ    -106.7946
       ZZZ    -370.4886
    Hexadecapole Moments (Debye-Ang^3)
      XXXX   -1297.1255   XXXY      80.6615   XXYY    -577.2752
      XYYY      69.8751   YYYY   -2352.3676   XXXZ    -636.7548
      XXYZ     103.6202   XYYZ    -153.5972   YYYZ     258.0284
      XXZZ    -758.6875   XYZZ     -88.1015   YYZZ    -922.8988
      XZZZ    -579.2654   YZZZ      38.5254   ZZZZ   -3415.5796
 -----------------------------------------------------------------
 Calculating analytic gradient of the SCF energy
 Gradient of SCF Energy
            1           2           3           4           5           6
    1   0.0001056  -0.0013064   0.0003803  -0.0000975   0.0004755   0.0001214
    2  -0.0007179   0.0008543  -0.0021685  -0.0019749   0.0009557   0.0004372
    3  -0.0008565  -0.0010721   0.0005950   0.0017609  -0.0003419   0.0000370
            7           8           9          10          11          12
    1  -0.0006475   0.0003110   0.0005243  -0.0000947  -0.0001723  -0.0000515
    2   0.0025171   0.0025229  -0.0017249  -0.0002150   0.0002644  -0.0004406
    3  -0.0006054  -0.0023995   0.0015354   0.0007818   0.0002845  -0.0004838
           13          14          15          16          17          18
    1   0.0002528  -0.0005591   0.0003845   0.0000650  -0.0001011   0.0001195
    2  -0.0000941  -0.0002510   0.0001581   0.0000938   0.0001200  -0.0001182
    3  -0.0002782   0.0003030  -0.0002137   0.0008767  -0.0001916  -0.0002171
           19          20          21          22          23          24
    1   0.0088735   0.0002801  -0.0052068  -0.0057231  -0.0005893   0.0032896
    2  -0.0014006   0.0001398  -0.0021050   0.0022593   0.0008696   0.0004629
    3  -0.0027070   0.0000052   0.0009387   0.0025355  -0.0005507  -0.0006302
           25          26          27          28          29          30
    1   0.0015127  -0.0013427  -0.0009946   0.0009807  -0.0000261  -0.0003334
    2  -0.0079858   0.0052850   0.0035450  -0.0010312   0.0000220   0.0003456
    3  -0.0001956  -0.0023762   0.0015172   0.0024714  -0.0002421   0.0005759
           31          32          33          34
    1  -0.0001368  -0.0001087   0.0001303  -0.0003151
    2  -0.0004035   0.0004689  -0.0003424  -0.0003479
    3  -0.0000782  -0.0000403  -0.0004263  -0.0003119
 Max gradient component =       8.873E-03
 RMS gradient           =       1.856E-03
 Gradient time:  CPU 581.15 s  wall 47.59 s

STARTING FREEZING STRING ITERATION # 1
 The distance between the innermost nodes (Angstroms): 19.461
-Adding two new nodes
 The distance between the previous and current R_nodes (Angstroms): 1.0713
 The distance between the previous and current P_nodes (Angstroms): 1.0765
-Optimizing new reactant side node
 Using BFGS, step: 2 E_tol 0.0603
 max_steps 3, node_spacing 1.0812, sigma 0.7000
 ----------------------------------------------------------------
             Standard Nuclear Orientation (Angstroms)
    I     Atom           X                Y                Z
 ----------------------------------------------------------------
    1      C      -0.3328065347    -0.8030381691    -0.4487112681
    2      C      -0.8345444002    -1.3677788588    -1.7155385522
    3      O       1.0261967206    -0.4545227748    -0.6018284467
    4      O      -1.0620172556     0.3360830825    -0.0459829843
    5      O      -0.6208634864    -0.6155702217    -2.8194159638
    6      C      -1.4671991273    -2.5394312781    -2.0035765388
    7      C       1.1807801306     0.8184885125     0.0071716491
    8      C      -0.1843193681     1.4491341018    -0.1546002135
    9      C      -1.2316874040    -1.2840762840    -3.8196791943
   10      C      -1.7273996531    -2.4790366635    -3.3930192832
   11      H      -0.4917351957    -1.5877436958     0.2964611669
   12      H      -1.7336793557    -3.3249208318    -1.3171006163
   13      H       1.4092668080     0.6410157129     1.0607799658
   14      H       2.0000382868     1.3406076855    -0.4817537008
   15      H      -0.4821285184     2.1435118264     0.6284043249
   16      H      -0.2693689397     1.9369529505    -1.1303685396
   17      H      -1.1732886242    -0.7847912153    -4.7694416490
   18      H      -2.2170058967    -3.2268898829    -3.9922694001
   19      C       3.8593482079     2.9188492658     3.1736337922
   20      C       3.0406608957     1.7339662116     3.2387432829
   21      O       3.2732004553     4.0908781547     3.0141673179
   22      O       5.0467539444     2.8356893482     3.2902610704
   23      C       2.4385820634     0.7102174946     3.4139013912
   24      C       1.8549919182     4.1338893221     2.8460209702
   25      C       1.6458530473    -0.4882059850     3.4849855504
   26      O       1.5481533542    -1.1652796349     4.6112439793
   27      O       1.3469065145    -1.0087347953     2.4531328845
   28      C       2.1397716237    -0.6512815912     5.8097370432
   29      H       1.5959459798     3.5616725578     1.9604558239
   30      H       1.3306883400     3.7341003929     3.7103654471
   31      H       1.6235632591     5.1808601696     2.6850768287
   32      H       3.2257888072    -0.6530463858     5.7263554350
   33      H       1.7627182179     0.3424579962     6.0505742123
   34      H       1.8261988199    -1.3466344612     6.5826857017
 ----------------------------------------------------------------
 Nuclear Repulsion Energy =  1504.0660707207 hartrees
 There are       74 alpha and       74 beta electrons
 Nucleus-field energy     =    -0.0000000076 hartrees
 Requested basis set is 6-311++G(d,p)
 There are 190 shells and 538 basis functions
 A cutoff of  1.0D-12 yielded  12848 shell pairs
 There are    102791 function pairs (    109538 Cartesian)
 Smallest overlap matrix eigenvalue = 4.17E-08
 Linear dependence detected in AO basis
 Number of orthogonalized atomic orbitals = 537
 Maximum deviation from orthogonality = 7.047E-11
 Guess MOs from core Hamiltonian diagonalization

 -----------------------------------------------------------------------
  General SCF calculation program by
  Eric Jon Sundstrom, Paul Horn, Yuezhi Mao, Dmitri Zuev, Alec White,
  David Stuck, Shaama M.S., Shane Yost, Joonho Lee, David Small,
  Daniel Levine, Susi Lehtola, Hugh Burton, Evgeny Epifanovsky
 -----------------------------------------------------------------------
 Exchange:     0.2220 Hartree-Fock + 1.0000 wB97X-D + LR-HF
 Correlation:  1.0000 wB97X-D
 Using SG-2 standard quadrature grid
 Dispersion:   Grimme D
 using 24 threads for integral computing
 -------------------------------------------------------
 OpenMP Integral computing Module                
 Release: version 1.0, May 2013, Q-Chem Inc. Pittsburgh 
 -------------------------------------------------------
 using 24 threads for integral computing
 -------------------------------------------------------
 OpenMP Integral computing Module                
 Release: version 1.0, May 2013, Q-Chem Inc. Pittsburgh 
 -------------------------------------------------------
 -------------------------------------------------------
 OpenMP BLAS3 based DFT computing Module                
 Release: version 1.0, May 2013, Q-Chem Inc. Pittsburgh 
 -------------------------------------------------------
 A restricted SCF calculation will be
 performed using DIIS, GDM
 SCF converges when RMS gradient is below 1.0e-08
 ---------------------------------------
  Cycle       Energy         DIIS error
 ---------------------------------------
    1    -649.6021618377      9.77e-02  
    2    -225.5323453762      9.03e-02  
    3    -667.1562488002      6.40e-02  
    4    -461.4634339373      8.01e-02  
    5    -771.7340136980      6.21e-02  
    6    -810.6549462753      3.97e-02  
    7    -644.0046929792      6.69e-02  
    8    -877.7632670448      4.16e-02  
    9    -997.2403692507      2.36e-02  
   10    -996.6992897117      1.82e-02  
   11    -895.1588012626      4.60e-02  
   12    -986.6722302244      2.61e-02  
   13   -1017.5301606636      1.40e-02  
   14   -1024.0981254039      9.44e-03  Done DIIS. Switching to GDM
 ---------------------------------------
  Cycle       Energy        RMS Gradient
 ---------------------------------------
    1   -1024.0981254039      7.98e-01   Descent step
    2   -1026.0695265831      2.50e-01   Descent step
    3   -1027.2147443250      2.46e-01   Descent step
    4   -1027.8294761321      1.90e-01   Descent step
    5   -1028.2216382756      3.11e-01   Descent step
    6   -1028.5820687948      1.57e-01   Descent step
    7   -1028.7945179102      2.92e-01   Descent step
    8   -1029.0721782704      5.99e-01   Descent step
    9   -1029.4152400233      2.47e-01   Descent step
   10   -1029.6327051739      5.93e-01   Descent step
   11   -1029.9657416942      1.00e-01   Descent step
   12   -1030.1077110782      8.71e-02   Dog-leg BFGS step
   13   -1030.1259702851      4.83e-02   Normal BFGS step
   14   -1030.1122942444      6.21e-02  Line search: overstep
   15   -1030.1427274810      3.37e-02   Dog-leg BFGS step
   16   -1030.0874657634      6.90e-02  Line search: overstep
   17   -1030.1532037625      2.82e-02   Normal BFGS step
   18   -1030.1462203922      2.77e-02  Line search: overstep
   19   -1030.1567090484      1.23e-02   Normal BFGS step
   20   -1030.1555543378      1.78e-02  Line search: overstep
   21   -1030.1575531391      6.76e-03   Normal BFGS step
   22   -1030.1578396313      3.38e-03   Normal BFGS step
   23   -1030.1579212918      1.13e-03   Normal BFGS step
   24   -1030.1579455706      8.49e-04   Normal BFGS step
   25   -1030.1579494084      4.43e-04   Normal BFGS step
   26   -1030.1579550847      1.63e-04   Normal BFGS step
   27   -1030.1579560414      9.07e-05   Normal BFGS step
   28   -1030.1579563162      4.87e-05   Normal BFGS step
   29   -1030.1579563470      2.98e-05   Normal BFGS step
   30   -1030.1579563627      8.02e-06   Normal BFGS step
   31   -1030.1579563642      5.05e-06   Normal BFGS step
   32   -1030.1579563648      1.37e-06   Normal BFGS step
   33   -1030.1579563649      6.17e-07   Normal BFGS step
   34   -1030.1579563649      3.43e-07   Normal BFGS step
   35   -1030.1579563649      1.80e-07   Normal BFGS step
   36   -1030.1579563649      7.60e-08   Normal BFGS step
   37   -1030.1579563649      2.57e-08   Normal BFGS step
   38   -1030.1579563649      8.94e-09  Convergence criterion met
 ---------------------------------------
 SCF time:   CPU 7592.57s  wall 415.00s 
 SCF   energy in the final basis set =    -1030.1579563649
 
 --------------------------------------------------------------
 
                    Orbital Energies (a.u.)
 --------------------------------------------------------------
 
 Alpha MOs
 -- Occupied --
-19.330 -19.329 -19.314 -19.265 -19.262 -19.257 -19.253 -10.467
-10.465 -10.382 -10.371 -10.371 -10.353 -10.351 -10.334 -10.330
-10.327 -10.326 -10.281 -10.281  -1.259  -1.256  -1.226  -1.196
 -1.170  -1.166  -1.102  -0.936  -0.909  -0.893  -0.867  -0.865
 -0.832  -0.816  -0.747  -0.737  -0.733  -0.698  -0.683  -0.675
 -0.649  -0.632  -0.618  -0.617  -0.611  -0.600  -0.598  -0.588
 -0.553  -0.545  -0.543  -0.539  -0.538  -0.535  -0.527  -0.505
 -0.500  -0.492  -0.482  -0.482  -0.478  -0.461  -0.443  -0.442
 -0.434  -0.428  -0.419  -0.415  -0.392  -0.391  -0.365  -0.358
 -0.339  -0.300
 -- Virtual --
 -0.019  -0.004   0.026   0.038   0.046   0.054   0.058   0.059
  0.062   0.069   0.070   0.072   0.074   0.088   0.094   0.097
  0.098   0.106   0.114   0.117   0.118   0.123   0.128   0.128
  0.134   0.135   0.140   0.146   0.148   0.149   0.153   0.156
  0.161   0.163   0.167   0.167   0.170   0.173   0.174   0.177
  0.183   0.184   0.185   0.187   0.191   0.193   0.195   0.197
  0.199   0.204   0.209   0.212   0.214   0.218   0.220   0.223
  0.227   0.228   0.234   0.238   0.240   0.242   0.245   0.252
  0.255   0.256   0.259   0.263   0.275   0.277   0.278   0.286
  0.288   0.295   0.299   0.303   0.306   0.311   0.315   0.321
  0.325   0.328   0.337   0.338   0.344   0.346   0.351   0.352
  0.354   0.363   0.365   0.367   0.368   0.375   0.377   0.381
  0.385   0.390   0.393   0.396   0.401   0.403   0.406   0.410
  0.416   0.420   0.427   0.428   0.436   0.438   0.440   0.443
  0.448   0.457   0.460   0.463   0.475   0.479   0.487   0.492
  0.494   0.499   0.508   0.516   0.520   0.527   0.536   0.538
  0.549   0.556   0.559   0.567   0.581   0.590   0.607   0.611
  0.620   0.632   0.640   0.642   0.649   0.654   0.661   0.666
  0.669   0.674   0.688   0.692   0.698   0.702   0.710   0.713
  0.719   0.724   0.731   0.736   0.751   0.752   0.756   0.761
  0.770   0.790   0.797   0.804   0.812   0.820   0.825   0.826
  0.833   0.837   0.843   0.851   0.851   0.869   0.873   0.879
  0.881   0.887   0.903   0.914   0.924   0.939   0.945   0.955
  0.966   0.974   0.990   1.011   1.028   1.032   1.048   1.067
  1.071   1.077   1.087   1.097   1.098   1.107   1.109   1.115
  1.140   1.159   1.165   1.171   1.183   1.189   1.199   1.202
  1.222   1.235   1.246   1.253   1.263   1.267   1.276   1.292
  1.300   1.305   1.309   1.315   1.322   1.328   1.334   1.346
  1.352   1.363   1.380   1.397   1.398   1.414   1.421   1.437
  1.443   1.452   1.458   1.460   1.483   1.495   1.497   1.521
  1.526   1.578   1.585   1.589   1.602   1.605   1.614   1.627
  1.636   1.649   1.650   1.658   1.680   1.687   1.697   1.713
  1.714   1.725   1.733   1.739   1.745   1.756   1.758   1.773
  1.775   1.787   1.789   1.800   1.803   1.812   1.823   1.829
  1.843   1.852   1.859   1.868   1.877   1.882   1.891   1.908
  1.927   1.938   1.940   1.966   1.970   1.975   1.978   1.990
  2.004   2.024   2.053   2.062   2.063   2.065   2.072   2.086
  2.093   2.113   2.130   2.141   2.147   2.182   2.184   2.193
  2.233   2.244   2.253   2.259   2.285   2.326   2.360   2.377
  2.407   2.435   2.465   2.474   2.508   2.521   2.532   2.560
  2.562   2.571   2.579   2.594   2.603   2.610   2.622   2.628
  2.646   2.649   2.706   2.719   2.747   2.763   2.772   2.787
  2.790   2.796   2.808   2.824   2.836   2.847   2.855   2.870
  2.874   2.887   2.894   2.902   2.908   2.913   2.939   2.947
  2.958   2.965   2.987   2.994   3.000   3.013   3.020   3.044
  3.074   3.082   3.087   3.110   3.115   3.124   3.128   3.138
  3.159   3.164   3.173   3.214   3.239   3.250   3.253   3.260
  3.277   3.281   3.300   3.321   3.324   3.332   3.342   3.372
  3.412   3.440   3.449   3.453   3.466   3.496   3.522   3.544
  3.572   3.617   3.628   3.666   3.686   3.722   3.769   3.780
  3.839   3.853   3.859   3.866   3.899   3.964   4.036   4.087
  4.099   4.114   4.135   4.150   4.153   4.170   4.217   4.240
  4.244   4.258   4.329   4.377   4.419   4.548   5.093   5.107
  5.123   5.159   5.168   5.251   5.274   5.314   5.336   5.428
  5.434   5.540   5.613   5.635   5.692   5.708   5.724   5.870
  5.942   5.983   6.009  23.628  23.842  23.982  23.991  24.002
 24.023  24.027  24.031  24.033  24.079  24.291  24.383  25.186
 50.004  50.017  50.066  50.079  50.136  50.150  50.167
 --------------------------------------------------------------
 
          Ground-State Mulliken Net Atomic Charges

     Atom                 Charge (a.u.)
  ----------------------------------------
      1 C                    -2.105387
      2 C                     0.934888
      3 O                     0.027709
      4 O                     0.040780
      5 O                     0.057019
      6 C                     0.214157
      7 C                    -0.102603
      8 C                    -0.372813
      9 C                     0.018163
     10 C                    -0.410467
     11 H                     0.274144
     12 H                     0.227564
     13 H                     0.132446
     14 H                     0.202406
     15 H                     0.161416
     16 H                     0.178115
     17 H                     0.229078
     18 H                     0.215432
     19 C                    -0.059500
     20 C                     0.200453
     21 O                    -0.058709
     22 O                    -0.226678
     23 C                     0.266884
     24 C                    -0.505427
     25 C                    -0.050126
     26 O                    -0.043210
     27 O                    -0.196167
     28 C                    -0.421765
     29 H                     0.225416
     30 H                     0.174562
     31 H                     0.201100
     32 H                     0.201300
     33 H                     0.164503
     34 H                     0.205317
  ----------------------------------------
  Sum of atomic charges =    -0.000000

 -----------------------------------------------------------------
                    Cartesian Multipole Moments
 -----------------------------------------------------------------
    Charge (ESU x 10^10)
                -0.0000
    Dipole Moment (Debye)
         X      -2.3503      Y       2.0584      Z       3.8475
       Tot       4.9562
    Quadrupole Moments (Debye-Ang)
        XX    -142.8701     XY      -7.0092     YY    -107.8185
        XZ       0.8967     YZ       1.8469     ZZ     -81.2524
    Octopole Moments (Debye-Ang^2)
       XXX    -496.7637    XXY    -136.1078    XYY    -178.0938
       YYY    -102.4502    XXZ    -184.3371    XYZ     -60.6373
       YYZ    -127.2139    XZZ    -100.9254    YZZ     -53.1645
       ZZZ    -189.9893
    Hexadecapole Moments (Debye-Ang^3)
      XXXX   -4183.9843   XXXY   -1554.7700   XXYY   -1322.8727
      XYYY   -1119.4791   YYYY   -2750.0711   XXXZ   -2349.4242
      XXYZ    -674.8330   XYYZ    -740.5425   YYYZ    -982.6821
      XXZZ   -1730.4442   XYZZ    -497.0785   YYZZ   -1535.9331
      XZZZ   -1443.5758   YZZZ   -1118.8315   ZZZZ   -4841.6339
 -----------------------------------------------------------------
 Calculating analytic gradient of the SCF energy
 Gradient of SCF Energy
            1           2           3           4           5           6
    1   0.0014557  -0.0091871   0.0088182  -0.0079234   0.0192586  -0.0045591
    2   0.0170034   0.0026939  -0.0072657  -0.0049386   0.0107229  -0.0136817
    3   0.0009356  -0.0032301  -0.0010945   0.0008682  -0.0036961  -0.0046343
            7           8           9          10          11          12
    1  -0.0044489   0.0056121  -0.0056110   0.0013113  -0.0051472  -0.0006126
    2   0.0071148  -0.0006565   0.0042411  -0.0067322  -0.0029906  -0.0005560
    3  -0.0101448   0.0031528   0.0101619   0.0130662  -0.0084053  -0.0020855
           13          14          15          16          17          18
    1  -0.0013784   0.0000355  -0.0041783   0.0030793   0.0020193   0.0014398
    2  -0.0060460  -0.0017722  -0.0035764   0.0002123   0.0028243  -0.0004655
    3   0.0022100   0.0020371  -0.0017117   0.0018293   0.0044141   0.0023223
           19          20          21          22          23          24
    1  -0.0155218   0.0058855   0.0086279  -0.0068615   0.0057387  -0.0038971
    2  -0.0007331   0.0030381  -0.0058956   0.0020934  -0.0146165  -0.0006131
    3  -0.0016742  -0.0027481  -0.0016226  -0.0002655  -0.0109601   0.0063340
           25          26          27          28          29          30
    1  -0.0314228   0.0066653   0.0216003   0.0041159   0.0053531   0.0006358
    2   0.0257432  -0.0073507   0.0032431   0.0030685   0.0014243  -0.0009924
    3   0.0111640  -0.0155721   0.0128366  -0.0011893   0.0035514  -0.0034776
           31          32          33          34
    1   0.0024536  -0.0014446  -0.0006475  -0.0012644
    2  -0.0013269  -0.0014081  -0.0019164   0.0001110
    3  -0.0014428   0.0000349   0.0008436  -0.0018073
 Max gradient component =       3.142E-02
 RMS gradient           =       7.620E-03
 Gradient time:  CPU 410.01 s  wall 33.76 s
 ----------------------------------------------------------------
             Standard Nuclear Orientation (Angstroms)
    I     Atom           X                Y                Z
 ----------------------------------------------------------------
    1      C      -0.3335660396    -0.8141950370    -0.4492623879
    2      C      -0.8274040318    -1.3693606791    -1.7124962383
    3      O       1.0199118634    -0.4476393950    -0.6013019779
    4      O      -1.0563869331     0.3409043723    -0.0471473887
    5      O      -0.6330734501    -0.6243516508    -2.8165887199
    6      C      -1.4637051483    -2.5291204426    -1.9986291206
    7      C       1.1837744256     0.8152417390     0.0135006602
    8      C      -0.1889822709     1.4510030892    -0.1579464116
    9      C      -1.2265790968    -1.2882349199    -3.8263289675
   10      C      -1.7278134267    -2.4747581467    -3.4010686740
   11      H      -0.4875567006    -1.5840174178     0.3029533895
   12      H      -1.7338940933    -3.3234832793    -1.3134754537
   13      H       1.4101625133     0.6476970537     1.0580066044
   14      H       1.9995251440     1.3439228986    -0.4846820285
   15      H      -0.4799297551     2.1475993100     0.6284322392
   16      H      -0.2724042522     1.9379105830    -1.1328502975
   17      H      -1.1729610403    -0.7886735875    -4.7721923635
   18      H      -2.2176714286    -3.2275061127    -3.9919030883
   19      C       3.8701332141     2.9186520053     3.1742271799
   20      C       3.0357179245     1.7311005846     3.2398391232
   21      O       3.2665852080     4.0946936063     3.0153555520
   22      O       5.0511382945     2.8331324456     3.2895295669
   23      C       2.4338822642     0.7203921963     3.4218596879
   24      C       1.8576496420     4.1340009771     2.8414842667
   25      C       1.6677558510    -0.5070918195     3.4771884325
   26      O       1.5432022885    -1.1607414753     4.6226071741
   27      O       1.3317717136    -1.0116797778     2.4438632599
   28      C       2.1368741082    -0.6549015505     5.8105926920
   29      H       1.5919522736     3.5605550583     1.9577860100
   30      H       1.3298854488     3.7340984447     3.7127513337
   31      H       1.6216921113     5.1815415698     2.6864605488
   32      H       3.2269682862    -0.6540786251     5.7263172182
   33      H       1.7639096812     0.3426327875     6.0502804694
   34      H       1.8267706898    -1.3480614077     6.5838103985
 ----------------------------------------------------------------
 Nuclear Repulsion Energy =  1503.9502164918 hartrees
 There are       74 alpha and       74 beta electrons
 Nucleus-field energy     =    -0.0000000076 hartrees
 Requested basis set is 6-311++G(d,p)
 There are 190 shells and 538 basis functions
 A cutoff of  1.0D-12 yielded  12844 shell pairs
 There are    102750 function pairs (    109492 Cartesian)
 Smallest overlap matrix eigenvalue = 4.05E-08
 Linear dependence detected in AO basis
 Number of orthogonalized atomic orbitals = 537
 Maximum deviation from orthogonality = 1.210E-10
 Guess MOs from core Hamiltonian diagonalization

 -----------------------------------------------------------------------
  General SCF calculation program by
  Eric Jon Sundstrom, Paul Horn, Yuezhi Mao, Dmitri Zuev, Alec White,
  David Stuck, Shaama M.S., Shane Yost, Joonho Lee, David Small,
  Daniel Levine, Susi Lehtola, Hugh Burton, Evgeny Epifanovsky
 -----------------------------------------------------------------------
 Exchange:     0.2220 Hartree-Fock + 1.0000 wB97X-D + LR-HF
 Correlation:  1.0000 wB97X-D
 Using SG-2 standard quadrature grid
 Dispersion:   Grimme D
 using 24 threads for integral computing
 -------------------------------------------------------
 OpenMP Integral computing Module                
 Release: version 1.0, May 2013, Q-Chem Inc. Pittsburgh 
 -------------------------------------------------------
 using 24 threads for integral computing
 -------------------------------------------------------
 OpenMP Integral computing Module                
 Release: version 1.0, May 2013, Q-Chem Inc. Pittsburgh 
 -------------------------------------------------------
 -------------------------------------------------------
 OpenMP BLAS3 based DFT computing Module                
 Release: version 1.0, May 2013, Q-Chem Inc. Pittsburgh 
 -------------------------------------------------------
 A restricted SCF calculation will be
 performed using DIIS, GDM
 SCF converges when RMS gradient is below 1.0e-08
 ---------------------------------------
  Cycle       Energy         DIIS error
 ---------------------------------------
    1    -649.6003246125      9.78e-02  
    2    -226.3663439631      9.02e-02  
    3    -665.6896183345      6.43e-02  
    4    -462.1238093702      8.01e-02  
    5    -767.9943263816      6.26e-02  
    6    -811.3243476279      3.95e-02  
    7    -618.6473434424      6.91e-02  
    8    -853.6078365371      4.71e-02  
    9    -942.8791461326      3.60e-02  
   10   -1001.2706548288      1.97e-02  
   11    -932.6927334229      3.59e-02  
   12   -1026.6075913839      9.42e-03  Done DIIS. Switching to GDM
 ---------------------------------------
  Cycle       Energy        RMS Gradient
 ---------------------------------------
    1   -1026.6075913839      9.92e-01   Descent step
    2   -1028.2849435024      2.25e-01   Descent step
    3   -1029.0538800758      1.07e-01   Descent step
    4   -1029.3700616684      6.44e-02   Dog-leg BFGS step
    5   -1029.4954609073      1.31e-01   Dog-leg BFGS step
    6   -1029.5715759859      2.90e-01   Descent step
    7   -1029.8181731737      8.82e-01   Descent step
    8   -1030.0786170445      3.78e-02   Descent step
    9   -1030.1236619665      3.89e-02   Normal BFGS step
   10   -1030.1584300049      1.77e-02   Normal BFGS step
   11   -1030.1428497356      4.61e-02  Line search: overstep
   12   -1030.1616571501      1.35e-02   Normal BFGS step
   13   -1030.1617738612      1.45e-02   Normal BFGS step
   14   -1030.1631518723      3.23e-03   Normal BFGS step
   15   -1030.1631818871      3.79e-03   Normal BFGS step
   16   -1030.1634274042      7.28e-04   Normal BFGS step
   17   -1030.1634296076      5.25e-04   Normal BFGS step
   18   -1030.1634342245      1.16e-04   Normal BFGS step
   19   -1030.1634344055      7.29e-05   Normal BFGS step
   20   -1030.1634345292      2.66e-05   Normal BFGS step
   21   -1030.1634345333      1.56e-05   Normal BFGS step
   22   -1030.1634345380      3.66e-06   Normal BFGS step
   23   -1030.1634345381      2.55e-06   Normal BFGS step
   24   -1030.1634345382      1.01e-06   Normal BFGS step
   25   -1030.1634345383      5.44e-07   Normal BFGS step
   26   -1030.1634345383      2.35e-07   Normal BFGS step
   27   -1030.1634345383      1.31e-07   Normal BFGS step
   28   -1030.1634345383      2.20e-08   Normal BFGS step
   29   -1030.1634345383      1.74e-08   Normal BFGS step
   30   -1030.1634345383      4.43e-09  Convergence criterion met
 ---------------------------------------
 SCF time:   CPU 6125.60s  wall 334.00s 
 SCF   energy in the final basis set =    -1030.1634345383
 
 --------------------------------------------------------------
 
                    Orbital Energies (a.u.)
 --------------------------------------------------------------
 
 Alpha MOs
 -- Occupied --
-19.330 -19.328 -19.312 -19.267 -19.266 -19.254 -19.252 -10.470
-10.467 -10.382 -10.371 -10.370 -10.351 -10.348 -10.332 -10.330
-10.326 -10.325 -10.282 -10.281  -1.257  -1.254  -1.228  -1.196
 -1.171  -1.170  -1.101  -0.936  -0.908  -0.894  -0.868  -0.864
 -0.834  -0.813  -0.746  -0.738  -0.732  -0.699  -0.682  -0.674
 -0.648  -0.634  -0.618  -0.616  -0.611  -0.601  -0.598  -0.588
 -0.555  -0.547  -0.544  -0.540  -0.537  -0.535  -0.529  -0.506
 -0.500  -0.494  -0.480  -0.480  -0.477  -0.460  -0.444  -0.441
 -0.429  -0.425  -0.419  -0.415  -0.395  -0.394  -0.363  -0.357
 -0.341  -0.303
 -- Virtual --
 -0.017  -0.003   0.027   0.038   0.046   0.055   0.058   0.059
  0.062   0.070   0.071   0.072   0.074   0.089   0.094   0.098
  0.099   0.107   0.114   0.117   0.118   0.123   0.127   0.128
  0.134   0.135   0.140   0.147   0.148   0.150   0.153   0.156
  0.162   0.163   0.167   0.168   0.171   0.173   0.174   0.177
  0.183   0.185   0.186   0.187   0.191   0.193   0.196   0.197
  0.200   0.203   0.210   0.212   0.214   0.218   0.220   0.223
  0.227   0.228   0.234   0.238   0.241   0.243   0.244   0.252
  0.257   0.258   0.260   0.264   0.275   0.277   0.279   0.286
  0.288   0.295   0.299   0.300   0.305   0.312   0.314   0.321
  0.325   0.328   0.337   0.339   0.343   0.345   0.351   0.352
  0.354   0.363   0.365   0.366   0.368   0.375   0.376   0.381
  0.385   0.390   0.392   0.397   0.401   0.403   0.405   0.408
  0.416   0.421   0.427   0.429   0.435   0.437   0.441   0.445
  0.448   0.458   0.460   0.463   0.475   0.480   0.489   0.493
  0.494   0.496   0.509   0.511   0.522   0.525   0.537   0.541
  0.550   0.556   0.559   0.570   0.580   0.592   0.608   0.611
  0.621   0.633   0.640   0.643   0.649   0.656   0.663   0.666
  0.670   0.674   0.689   0.693   0.699   0.703   0.711   0.713
  0.720   0.725   0.733   0.740   0.751   0.752   0.757   0.760
  0.772   0.789   0.799   0.803   0.811   0.819   0.824   0.828
  0.834   0.838   0.843   0.847   0.853   0.863   0.874   0.878
  0.880   0.887   0.903   0.915   0.924   0.939   0.947   0.954
  0.965   0.974   0.992   1.014   1.030   1.034   1.051   1.071
  1.072   1.078   1.089   1.097   1.099   1.106   1.112   1.117
  1.141   1.160   1.165   1.175   1.183   1.187   1.200   1.204
  1.225   1.235   1.243   1.258   1.267   1.274   1.285   1.292
  1.301   1.304   1.312   1.316   1.322   1.326   1.334   1.344
  1.353   1.364   1.382   1.395   1.397   1.414   1.420   1.434
  1.443   1.452   1.455   1.463   1.485   1.497   1.497   1.523
  1.530   1.581   1.586   1.589   1.601   1.605   1.614   1.618
  1.635   1.648   1.653   1.657   1.681   1.687   1.696   1.711
  1.713   1.726   1.735   1.740   1.747   1.755   1.761   1.774
  1.780   1.786   1.789   1.803   1.810   1.814   1.826   1.833
  1.843   1.853   1.860   1.869   1.878   1.884   1.892   1.909
  1.927   1.937   1.941   1.963   1.967   1.970   1.977   1.994
  2.008   2.025   2.053   2.063   2.065   2.068   2.072   2.082
  2.095   2.118   2.130   2.146   2.154   2.180   2.186   2.195
  2.233   2.243   2.252   2.260   2.286   2.328   2.360   2.375
  2.404   2.426   2.464   2.472   2.505   2.518   2.527   2.555
  2.563   2.570   2.582   2.597   2.601   2.613   2.622   2.630
  2.645   2.650   2.705   2.720   2.748   2.762   2.773   2.783
  2.792   2.797   2.810   2.825   2.837   2.845   2.856   2.872
  2.874   2.889   2.894   2.903   2.910   2.917   2.939   2.948
  2.959   2.964   2.986   2.995   3.003   3.012   3.021   3.049
  3.076   3.091   3.095   3.107   3.115   3.119   3.122   3.127
  3.158   3.170   3.178   3.219   3.239   3.252   3.255   3.264
  3.281   3.282   3.302   3.318   3.321   3.330   3.337   3.369
  3.411   3.436   3.449   3.452   3.465   3.479   3.517   3.547
  3.569   3.618   3.641   3.679   3.689   3.720   3.767   3.784
  3.840   3.851   3.855   3.861   3.898   3.962   4.039   4.082
  4.103   4.125   4.139   4.154   4.156   4.182   4.214   4.238
  4.251   4.270   4.331   4.379   4.421   4.550   5.094   5.107
  5.122   5.157   5.161   5.252   5.271   5.315   5.334   5.426
  5.436   5.547   5.606   5.635   5.693   5.713   5.723   5.878
  5.959   5.981   6.017  23.622  23.841  23.977  23.988  23.993
 24.017  24.024  24.028  24.033  24.087  24.320  24.389  25.210
 50.004  50.016  50.072  50.081  50.138  50.152  50.168
 --------------------------------------------------------------
 
          Ground-State Mulliken Net Atomic Charges

     Atom                 Charge (a.u.)
  ----------------------------------------
      1 C                    -2.078407
      2 C                     0.883422
      3 O                     0.022997
      4 O                     0.033057
      5 O                     0.055162
      6 C                     0.258280
      7 C                    -0.105054
      8 C                    -0.362161
      9 C                     0.030536
     10 C                    -0.429802
     11 H                     0.276424
     12 H                     0.230062
     13 H                     0.129219
     14 H                     0.199000
     15 H                     0.159763
     16 H                     0.176192
     17 H                     0.229790
     18 H                     0.214746
     19 C                    -0.079915
     20 C                     0.231286
     21 O                    -0.061919
     22 O                    -0.219468
     23 C                     0.334049
     24 C                    -0.508223
     25 C                    -0.104546
     26 O                    -0.048322
     27 O                    -0.207741
     28 C                    -0.424063
     29 H                     0.224418
     30 H                     0.172258
     31 H                     0.200585
     32 H                     0.198525
     33 H                     0.163959
     34 H                     0.205890
  ----------------------------------------
  Sum of atomic charges =    -0.000000

 -----------------------------------------------------------------
                    Cartesian Multipole Moments
 -----------------------------------------------------------------
    Charge (ESU x 10^10)
                -0.0000
    Dipole Moment (Debye)
         X      -2.1482      Y       1.9335      Z       3.7640
       Tot       4.7457
    Quadrupole Moments (Debye-Ang)
        XX    -141.7097     XY      -6.7627     YY    -108.0575
        XZ       1.6188     YZ       1.7513     ZZ     -81.2885
    Octopole Moments (Debye-Ang^2)
       XXX    -490.9239    XXY    -133.6513    XYY    -177.1637
       YYY    -103.7669    XXZ    -180.8407    XYZ     -59.5796
       YYZ    -127.4959    XZZ     -99.7113    YZZ     -53.7972
[...]
  1.153   1.163   1.172   1.177   1.187   1.199   1.208   1.220
  1.223   1.228   1.237   1.253   1.257   1.271   1.282   1.290
  1.297   1.299   1.319   1.323   1.341   1.351   1.357   1.366
  1.375   1.380   1.389   1.399   1.409   1.416   1.425   1.439
  1.456   1.480   1.485   1.498   1.504   1.514   1.536   1.547
  1.561   1.565   1.573   1.589   1.603   1.611   1.617   1.620
  1.639   1.646   1.655   1.663   1.665   1.669   1.685   1.690
  1.700   1.727   1.736   1.739   1.750   1.766   1.771   1.776
  1.782   1.791   1.802   1.809   1.815   1.830   1.831   1.848
  1.863   1.869   1.877   1.882   1.900   1.902   1.911   1.917
  1.940   1.941   1.951   1.958   2.002   2.010   2.011   2.018
  2.025   2.036   2.041   2.060   2.067   2.080   2.086   2.122
  2.151   2.164   2.167   2.175   2.189   2.202   2.229   2.241
  2.251   2.263   2.268   2.291   2.315   2.333   2.366   2.379
  2.390   2.410   2.437   2.535   2.542   2.552   2.560   2.570
  2.590   2.594   2.610   2.611   2.619   2.623   2.655   2.670
  2.675   2.692   2.703   2.719   2.722   2.748   2.762   2.773
  2.784   2.799   2.808   2.812   2.815   2.837   2.842   2.853
  2.874   2.891   2.900   2.921   2.928   2.938   2.942   2.957
  2.979   2.982   2.984   2.995   3.008   3.030   3.040   3.062
  3.066   3.080   3.096   3.099   3.108   3.123   3.131   3.136
  3.150   3.169   3.177   3.188   3.212   3.233   3.241   3.267
  3.283   3.295   3.307   3.339   3.356   3.360   3.372   3.382
  3.412   3.433   3.471   3.477   3.495   3.526   3.537   3.569
  3.603   3.625   3.684   3.752   3.759   3.771   3.788   3.816
  3.891   3.899   3.912   3.934   3.961   4.038   4.051   4.080
  4.124   4.128   4.136   4.165   4.198   4.209   4.220   4.265
  4.320   4.345   4.354   4.400   4.513   5.127   5.138   5.161
  5.180   5.201   5.229   5.259   5.332   5.376   5.421   5.450
  5.520   5.613   5.685   5.716   5.769   5.828   5.927   5.982
  6.017   6.033  23.637  23.835  23.967  23.970  23.983  24.034
 24.046  24.055  24.069  24.097  24.298  24.361  24.972  50.018
 50.034  50.060  50.079  50.130  50.160  50.191
 --------------------------------------------------------------
 
          Ground-State Mulliken Net Atomic Charges

     Atom                 Charge (a.u.)
  ----------------------------------------
      1 C                    -0.710896
      2 C                    -0.438804
      3 O                    -0.000216
      4 O                     0.019148
      5 O                     0.073407
      6 C                     0.160014
      7 C                     0.105704
      8 C                    -0.327592
      9 C                    -0.023285
     10 C                    -0.462185
     11 H                     0.308522
     12 H                     0.250548
     13 H                     0.013684
     14 H                     0.187864
     15 H                     0.187533
     16 H                     0.182171
     17 H                     0.217778
     18 H                     0.209064
     19 C                    -0.410325
     20 C                     0.136028
     21 O                    -0.024495
     22 O                    -0.220586
     23 C                     0.982251
     24 C                    -0.399548
     25 C                    -0.531061
     26 O                    -0.114219
     27 O                    -0.129752
     28 C                    -0.379481
     29 H                     0.184588
     30 H                     0.180555
     31 H                     0.209932
     32 H                     0.183870
     33 H                     0.194361
     34 H                     0.185424
  ----------------------------------------
  Sum of atomic charges =    -0.000000

 -----------------------------------------------------------------
                    Cartesian Multipole Moments
 -----------------------------------------------------------------
    Charge (ESU x 10^10)
                -0.0000
    Dipole Moment (Debye)
         X       1.6403      Y       2.7943      Z       1.3320
       Tot       3.5033
    Quadrupole Moments (Debye-Ang)
        XX    -112.3219     XY       2.6975     YY     -98.5590
        XZ       2.5363     YZ      -8.4921     ZZ    -103.1174
    Octopole Moments (Debye-Ang^2)
       XXX    -264.5650    XXY     -38.9518    XYY     -65.1783
       YYY     -15.3555    XXZ    -113.7054    XYZ     -38.7436
       YYZ    -151.1508    XZZ     -67.3710    YZZ    -127.5867
       ZZZ    -283.2678
    Hexadecapole Moments (Debye-Ang^3)
      XXXX   -1851.6040   XXXY    -457.9375   XXYY    -798.7770
      XYYY    -301.2746   YYYY   -3284.8743   XXXZ   -1326.8628
      XXYZ    -262.4054   XYYZ    -407.7718   YYYZ    -361.1747
      XXZZ   -1270.1108   XYZZ    -461.5540   YYZZ   -1565.3071
      XZZZ   -1218.0592   YZZZ   -1095.0142   ZZZZ   -5013.5089
 -----------------------------------------------------------------
 Calculating analytic gradient of the SCF energy
 Gradient of SCF Energy
            1           2           3           4           5           6
    1   0.0136040  -0.0049504  -0.0033176   0.0029355   0.0080790   0.0032720
    2   0.0437167  -0.0246828  -0.0073941  -0.0178467  -0.0155072  -0.0066259
    3  -0.1029226   0.0090114   0.0315888   0.0437689   0.0434173   0.0159731
            7           8           9          10          11          12
    1  -0.0034549   0.0065590   0.0004504  -0.0069221  -0.0122284   0.0026935
    2  -0.0034087  -0.0077426   0.0259599  -0.0024899   0.0162484  -0.0004211
    3  -0.0042408   0.0270578  -0.0065794   0.0030522  -0.0463130   0.0018531
           13          14          15          16          17          18
    1   0.0000495  -0.0001804   0.0025026  -0.0057890  -0.0034668  -0.0001970
    2   0.0036211  -0.0042808   0.0074516  -0.0089671   0.0043859  -0.0011553
    3  -0.0017180   0.0000107  -0.0033924   0.0003829  -0.0095463  -0.0014790
           19          20          21          22          23          24
    1  -0.0232437   0.0353460   0.0209716  -0.0473872  -0.0158405   0.0059736
    2  -0.0079274   0.0140834  -0.0087813   0.0176469  -0.0075464  -0.0099375
    3  -0.0294649   0.0335630   0.0153049  -0.0849875  -0.0082405   0.0079061
           25          26          27          28          29          30
    1   0.0370643  -0.0313683   0.0409354  -0.0082438  -0.0085331   0.0032405
    2   0.0223766   0.0029951   0.0098051  -0.0070629  -0.0016871  -0.0091293
    3   0.0306263  -0.0406407   0.0625009  -0.0075830   0.0037999   0.0167240
           31          32          33          34
    1  -0.0000840  -0.0037019  -0.0047025  -0.0000652
    2  -0.0056204  -0.0028374  -0.0050651  -0.0021739
    3   0.0081987  -0.0052168  -0.0044107   0.0019959
 Max gradient component =       1.029E-01
 RMS gradient           =       2.235E-02
 Gradient time:  CPU 402.94 s  wall 33.60 s
 E1 = -1029.9214423, E2 = -1029.9216103, Emax = -1029.9215240
 Iteration 5, Curvature = -0.1349272
 Curvature, final (in Hartree/Bohr^2) = -0.0377835
 ----------------------------------------------------------------
             Standard Nuclear Orientation (Angstroms)
    I     Atom           X                Y                Z
 ----------------------------------------------------------------
    1      C      -0.4346652155     0.3548939783    -1.1343298094
    2      C      -0.5553989382    -1.1337622315    -1.4266120963
    3      O       0.8592012691     0.8332823658    -1.0184142044
    4      O      -1.4215214931     1.3937172932    -1.0779753449
    5      O       0.5912435868    -1.7244091881    -1.8015113994
    6      C      -1.5245623497    -2.0611884973    -1.2055876892
    7      C       0.7834178899     2.2300111347    -0.8724963408
    8      C      -0.6764623631     2.5969011269    -1.1340333007
    9      C       0.2322079332    -2.9436406856    -2.2508229572
   10      C      -1.0283435507    -3.2504699592    -1.8482064093
   11      H      -0.7230165067     0.1290391741    -0.1417931121
   12      H      -2.4937530856    -1.8855244610    -0.7739776993
   13      H       1.0973034956     2.5282071106     0.1325067142
   14      H       1.4632008003     2.6724084768    -1.6011747495
   15      H      -1.0591512464     3.3688491269    -0.4598686947
   16      H      -0.8152968157     2.9504924666    -2.1606872063
   17      H       0.9270081931    -3.4252693182    -2.9227027226
   18      H      -1.5568263908    -4.1707303629    -2.0481006276
   19      C       2.1765674715     2.3971123036     3.4805710587
   20      C       1.6988502468     1.3815105730     2.6008786718
   21      O       2.1975974729     3.7116919305     3.5436511062
   22      O       2.7355133900     1.8774977137     4.3765599454
   23      C       1.5643339038     0.2489172764     3.0305548158
   24      C       2.5939687290     4.2575966779     2.3247916736
   25      C       1.4600376842    -1.0599540107     3.5749704656
   26      O       1.8272084610    -1.8780318977     4.4990178057
   27      O       0.7328026953    -1.6548292550     2.8337085598
   28      C       2.3733049342    -1.7816231745     5.7860562959
   29      H       3.5294383369     3.8146269857     2.0074143582
   30      H       1.8160905464     4.0006198333     1.6227660474
   31      H       2.6964013796     5.3170044696     2.5141487789
   32      H       3.2249990380    -2.4586934514     5.7798583785
   33      H       2.6590725960    -0.7635903502     6.0137046647
   34      H       1.6317392330    -2.1453902212     6.5031362928
 ----------------------------------------------------------------
 Nuclear Repulsion Energy =  1501.0708924007 hartrees
 There are       74 alpha and       74 beta electrons
 Requested basis set is 6-311++G(d,p)
 There are 190 shells and 538 basis functions
 Geometry Optimization Parameters
   NAtoms,    NIC,     NZ,  NCons,   NDum,   NFix, NCnnct, MaxDiis
       34     225       0       0       0       0       0       0


** GEOMETRY OPTIMIZATION IN DELOCALIZED INTERNAL COORDINATES **
   Searching for a Minimum

   Optimization Cycle:   1

                       Coordinates (Angstroms)
     ATOM                X               Y               Z
      1  C        -0.4346652155    0.3548939783   -1.1343298094
      2  C        -0.5553989382   -1.1337622315   -1.4266120963
      3  O         0.8592012691    0.8332823658   -1.0184142044
      4  O        -1.4215214931    1.3937172932   -1.0779753449
      5  O         0.5912435868   -1.7244091881   -1.8015113994
      6  C        -1.5245623497   -2.0611884973   -1.2055876892
      7  C         0.7834178899    2.2300111347   -0.8724963408
      8  C        -0.6764623631    2.5969011269   -1.1340333007
      9  C         0.2322079332   -2.9436406856   -2.2508229572
     10  C        -1.0283435507   -3.2504699592   -1.8482064093
     11  H        -0.7230165067    0.1290391741   -0.1417931121
     12  H        -2.4937530856   -1.8855244610   -0.7739776993
     13  H         1.0973034956    2.5282071106    0.1325067142
     14  H         1.4632008003    2.6724084768   -1.6011747495
     15  H        -1.0591512464    3.3688491269   -0.4598686947
     16  H        -0.8152968157    2.9504924666   -2.1606872063
     17  H         0.9270081931   -3.4252693182   -2.9227027226
     18  H        -1.5568263908   -4.1707303629   -2.0481006276
     19  C         2.1765674715    2.3971123036    3.4805710587
     20  C         1.6988502468    1.3815105730    2.6008786718
     21  O         2.1975974729    3.7116919305    3.5436511062
     22  O         2.7355133900    1.8774977137    4.3765599454
     23  C         1.5643339038    0.2489172764    3.0305548158
     24  C         2.5939687290    4.2575966779    2.3247916736
     25  C         1.4600376842   -1.0599540107    3.5749704656
     26  O         1.8272084610   -1.8780318977    4.4990178057
     27  O         0.7328026953   -1.6548292550    2.8337085598
     28  C         2.3733049342   -1.7816231745    5.7860562959
     29  H         3.5294383369    3.8146269857    2.0074143582
     30  H         1.8160905464    4.0006198333    1.6227660474
     31  H         2.6964013796    5.3170044696    2.5141487789
     32  H         3.2249990380   -2.4586934514    5.7798583785
     33  H         2.6590725960   -0.7635903502    6.0137046647
     34  H         1.6317392330   -2.1453902212    6.5031362928
   Point Group: c1    Number of degrees of freedom:    96


   Energy is  -1029.921610265


 Attempting to Generate Delocalized Internal Coordinates

 96 Hessian modes will be used to form the next step
  Hessian Eigenvalues:
     0.002000    0.002000    0.002152    0.002568    0.006285    0.008425
     0.014587    0.015457    0.016550    0.016558    0.016804    0.018966
     0.019953    0.021193    0.023041    0.023244    0.023430    0.024410
     0.026441    0.026723    0.027490    0.030513    0.044381    0.047420
     0.052711    0.059989    0.071052    0.086141    0.088332    0.090177
     0.102345    0.103474    0.104651    0.109386    0.113759    0.115590
     0.122658    0.140448    0.157193    0.158808    0.159380    0.160000
     0.160000    0.160000    0.160000    0.160000    0.160000    0.189728
     0.200000    0.205383    0.219166    0.237309    0.241007    0.246294
     0.247724    0.249967    0.249981    0.250000    0.250000    0.250000
     0.250000    0.250000    0.286978    0.301867    0.342776    0.343213
     0.343536    0.343745    0.347760    0.350394    0.356803    0.358006
     0.358664    0.360091    0.360094    0.361306    0.365564    0.377018
     0.383944    0.387938    0.408966    0.415672    0.422485    0.437612
     0.453857    0.460523    0.466817    0.467826    0.517371    0.536400
     0.549713    0.628724    0.707561    0.959149    1.064719    1.173125

 Minimum Search - Taking Simple RFO Step
 Searching for Lamda that Minimizes Along All modes
 Value Taken    Lamda =  -0.18732359
 Calculated Step too Large.  Step scaled by  0.430313
 Step Taken.  Stepsize is  0.300000

                             Maximum     Tolerance    Cnvgd?
         Gradient           0.151853      0.000300      NO
         Displacement       0.144941      0.001200      NO
         Energy change     *********      0.000001      NO


 New Cartesian Coordinates Obtained by Inverse Iteration

 Displacement from previous Coordinates is:  2.397019
 ----------------------------------------------------------------
             Standard Nuclear Orientation (Angstroms)
    I     Atom           X                Y                Z
 ----------------------------------------------------------------
    1      C      -0.3791069432     0.3002889575    -0.9715945697
    2      C      -0.4851987788    -1.1814005539    -1.2814782710
    3      O       0.9043422758     0.8224369135    -0.9209329336
    4      O      -1.3910121553     1.3251793501    -0.9428845622
    5      O       0.6529734351    -1.7633982023    -1.7036688229
    6      C      -1.4416366182    -2.1181050015    -1.0501173759
    7      C       0.7945310216     2.2226262980    -0.8041673724
    8      C      -0.6801024948     2.5475402212    -1.0509390809
    9      C       0.3026794522    -3.0001111831    -2.1246844128
   10      C      -0.9463109891    -3.3085942952    -1.6945257717
   11      H      -0.6183215876     0.0741359802     0.0519870714
   12      H      -2.4032519534    -1.9520619387    -0.5965109641
   13      H       1.1254321408     2.5464492316     0.1876577076
   14      H       1.4439066653     2.6697310965    -1.5584401871
   15      H      -1.0771500487     3.3206565551    -0.3881080560
   16      H      -0.8349086731     2.8784816648    -2.0839961420
   17      H       0.9896686469    -3.4860229701    -2.8003270640
   18      H      -1.4708410097    -4.2350535608    -1.8718866142
   19      C       2.2792198594     2.4765715807     3.5800501301
   20      C       1.7120652471     1.5111361821     2.6533250405
   21      O       2.2958699383     3.8014964875     3.5817583014
   22      O       2.8611230083     1.9678892749     4.4886359017
   23      C       1.4789028519     0.3482183714     2.9348669199
   24      C       2.6402908854     4.3315860945     2.3240075226
   25      C       1.2553255041    -1.0089589290     3.2999779860
   26      O       1.6269030622    -1.8973105298     4.1718624457
   27      O       0.4827160803    -1.4567113676     2.4846454497
   28      C       2.2202747331    -1.8311785914     5.4482410939
   29      H       3.5753913205     3.8985875310     1.9816088659
   30      H       1.8468208761     4.0558963368     1.6397656095
   31      H       2.7327812780     5.3991767715     2.4791481990
   32      H       3.0640140620    -2.5180571280     5.4141968992
   33      H       2.5315869443    -0.8205287877     5.6887066371
   34      H       1.4935332940    -2.1933189064     6.1798216885
 ----------------------------------------------------------------
 Nuclear Repulsion Energy =  1511.6837087894 hartrees
 There are       74 alpha and       74 beta electrons
































































































 Eigenvalues after right structure
 -0.0441758 -0.0000000 0.0000000 0.0000000 0.0000000 0.0000000 0.0000014 0.0000085 0.0000332 0.0002151 0.0005135 0.0005372 0.0013032 0.0016844 0.0020381 0.0031378 0.0036010 0.0048334 0.0064764 0.0077573 0.0125593 0.0138298 0.0154978 0.0176713 0.0211443 0.0223497 0.0251192 0.0319919 0.0432033 0.0473999 0.0532641 0.0553287 0.0570713 0.0594201 0.0603640 0.0617826 0.0715735 0.0724734 0.0743780 0.0752426 0.0812861 0.0885304 0.0928817 0.0951922 0.1100103 0.1127289 0.1254417 0.1341306 0.1344943 0.1360802 0.1430923 0.1448374 0.1603640 0.1607838 0.1663042 0.1891624 0.1960168 0.2073377 0.2142259 0.2213460 0.2328607 0.2345869 0.2496817 0.2517955 0.2711686 0.2878982 0.2936396 0.3270563 0.3433773 0.3897482 0.4273894 0.4384214 0.5052356 0.5910177 0.6378379 0.6476918 0.7811959 0.8116772 0.8303926 0.8579069 0.9319589 0.9598692 0.9731086 0.9907005 0.9977787 1.0386688 1.0431833 1.0953536 1.1097293 1.1816213 1.1844175 1.2149060 1.3481464 1.4173548 1.4588011 1.5770201 1.5789641 1.6927807 1.7712874 2.3651450 2.4525426 2.6032907
Archival summary:
1\1\nid03520\JobtypUnspecified\ProcedureUnspecified\BasisUnspecified\71314\ewcss\WedFeb1301:45:042019WedFeb1301:45:042019\0\\#,JobtypUnspecified,ProcedureUnspecified,BasisUnspecified,\\0,1\O\C,1,1.38652\H,2,1.07522,1,104.499\C,1,1.40933,2,107.761,3,-92.2617,0\H,4,1.09111,1,107.666,2,-130.34,0\H,4,1.09457,1,110.209,2,110.911,0\O,2,1.44055,1,112.431,3,94.4813,0\C,7,1.41818,2,105.045,1,7.57192,0\H,8,1.09302,7,112.418,2,-138.778,0\H,8,1.09576,7,105.149,2,104.125,0\C,2,1.51746,1,116.097,3,-95.5183,0\O,11,1.34625,2,115.281,1,-11.3435,0\C,12,1.35256,11,105.899,2,-170.409,0\H,13,1.07915,12,116.214,11,159.502,0\C,13,1.35653,12,110.345,11,-14.0445,0\H,15,1.07931,13,126.196,12,-179.051,0\C,11,1.35857,2,133.446,1,157.55,0\H,17,1.07612,11,126.476,2,2.84635,0\H,6,2.21528,4,153.38,1,160.788,0\C,19,1.08341,6,145.677,4,-121.138,0\H,20,1.08276,19,113.825,6,153.091,0\H,20,1.08588,19,109.273,6,27.8612,0\O,20,1.40768,19,106.815,6,-91.1161,0\C,23,1.32503,20,112.238,19,65.0368,0\O,24,1.19285,23,114.79,20,132.075,0\C,24,1.45346,23,132.06,20,-45.9726,0\C,26,1.21902,24,124.128,23,-160.732,0\C,27,1.4231,26,177.554,24,-33.847,0\O,28,1.2092,27,106.291,26,-164.394,0\O,28,1.29901,27,141.21,26,13.1544,0\C,30,1.40912,28,134.133,27,20.4574,0\H,31,1.08451,30,111.436,28,-8.44361,0\H,31,1.08851,30,105.573,28,-130.1,0\H,31,1.09294,30,108.105,28,113.249,0\\\@

 Total job time:  42676.16s(wall), 726211.21s(cpu) 
 Wed Feb 13 01:45:04 2019

        *************************************************************
        *                                                           *
        *  Thank you very much for using Q-Chem.  Have a nice day.  *
        *                                                           *
        *************************************************************


0 sent ACK to 0 
now end server 0 ... 
cleanup process ... done

