34
image # 1 Energy = -1030.16113
C -0.36928  -0.95295  -0.45891  
C -0.88579  -1.40556  -1.78111  
O 1.00272   -0.62813  -0.55809  
O -1.03818  0.20256   0.01941   
O -0.80747  -0.53721  -2.81935  
C -1.47075  -2.56192  -2.17771  
C 1.21061   0.58760   0.14982   
C -0.12131  1.29034   -0.03104  
C -1.35212  -1.15310  -3.89480  
C -1.77591  -2.39725  -3.56774  
H -0.53026  -1.75396  0.27232   
H -1.66143  -3.42309  -1.55650  
H 1.41931   0.38724   1.20716   
H 2.05332   1.10786   -0.30347  
H -0.36793  1.98586   0.77036   
H -0.17887  1.79862   -0.99939  
H -1.36363  -0.58451  -4.80986  
H -2.24679  -3.10798  -4.22796  
C 3.92583   2.99996   3.25413   
C 3.10733   1.79736   3.33593   
O 3.29631   4.14362   3.02085   
O 5.11796   2.95165   3.39321   
C 2.48865   0.77060   3.41452   
C 1.86939   4.16437   2.84247   
C 1.72821   -0.47208  3.42883   
O 1.55877   -1.06224  4.60425   
O 1.27639   -0.93675  2.41748   
C 2.12697   -0.48915  5.79454   
H 1.58136   3.55605   1.98429   
H 1.36595   3.81532   3.74499   
H 1.62205   5.20616   2.65892   
H 3.21092   -0.40946  5.70296   
H 1.68701   0.48846   5.99630   
H 1.87215   -1.18214  6.59135   
34
image # 2 Energy = -1030.16343
C -0.33357  -0.81420  -0.44926  
C -0.82740  -1.36936  -1.71250  
O 1.01991   -0.44764  -0.60130  
O -1.05639  0.34090   -0.04715  
O -0.63307  -0.62435  -2.81659  
C -1.46371  -2.52912  -1.99863  
C 1.18377   0.81524   0.01350   
C -0.18898  1.45100   -0.15795  
C -1.22658  -1.28823  -3.82633  
C -1.72781  -2.47476  -3.40107  
H -0.48756  -1.58402  0.30295   
H -1.73389  -3.32348  -1.31348  
H 1.41016   0.64770   1.05801   
H 1.99953   1.34392   -0.48468  
H -0.47993  2.14760   0.62843   
H -0.27240  1.93791   -1.13285  
H -1.17296  -0.78867  -4.77219  
H -2.21767  -3.22751  -3.99190  
C 3.87013   2.91865   3.17423   
C 3.03572   1.73110   3.23984   
O 3.26659   4.09469   3.01536   
O 5.05114   2.83313   3.28953   
C 2.43388   0.72039   3.42186   
C 1.85765   4.13400   2.84148   
C 1.66776   -0.50709  3.47719   
O 1.54320   -1.16074  4.62261   
O 1.33177   -1.01168  2.44386   
C 2.13687   -0.65490  5.81059   
H 1.59195   3.56056   1.95779   
H 1.32989   3.73410   3.71275   
H 1.62169   5.18154   2.68646   
H 3.22697   -0.65408  5.72632   
H 1.76391   0.34263   6.05028   
H 1.82677   -1.34806  6.58381   
34
image # 3 Energy = -1030.14377
C -0.30245  -0.65733  -0.44489  
C -0.77291  -1.33010  -1.63927  
O 1.03149   -0.26366  -0.64046  
O -1.07951  0.48297   -0.12733  
O -0.44496  -0.74181  -2.79535  
C -1.45814  -2.48752  -1.81476  
C 1.14679   1.04376   -0.12594  
C -0.25499  1.61393   -0.29225  
C -1.08445  -1.44788  -3.73891  
C -1.66038  -2.56358  -3.21819  
H -0.45664  -1.39505  0.33622   
H -1.82424  -3.18406  -1.07198  
H 1.39040   0.91883   0.91924   
H 1.93836   1.57267   -0.66151  
H -0.58550  2.31847   0.47049   
H -0.36367  2.06664   -1.28181  
H -0.94413  -1.04533  -4.71694  
H -2.17103  -3.35527  -3.73699  
C 3.79406   2.83413   3.09725   
C 2.95786   1.67655   3.12842   
O 3.24355   4.03659   3.02266   
O 4.98316   2.70886   3.19363   
C 2.33915   0.66620   3.42833   
C 1.84259   4.10661   2.84493   
C 1.59925   -0.54678  3.51701   
O 1.51994   -1.25276  4.62854   
O 1.40772   -1.08281  2.47303   
C 2.14984   -0.81801  5.81967   
H 1.60223   3.57911   1.93013   
H 1.28683   3.65626   3.67042   
H 1.63004   5.16280   2.72488   
H 3.23461   -0.90784  5.73094   
H 1.85616   0.19522   6.09356   
H 1.77987   -1.50454  6.57166   
34
image # 4 Energy = -1030.13744
C -0.28077  -0.50620  -0.43786  
C -0.72391  -1.30157  -1.57054  
O 1.02890   -0.09629  -0.67962  
O -1.10370  0.60862   -0.21304  
O -0.30113  -0.85432  -2.75412  
C -1.46419  -2.43834  -1.65761  
C 1.10451   1.24881   -0.25186  
C -0.31006  1.76380   -0.41972  
C -0.92307  -1.63123  -3.65434  
C -1.58576  -2.65377  -3.04378  
H -0.43158  -1.20768  0.38682   
H -1.91660  -3.01367  -0.87177  
H 1.37116   1.17787   0.81150   
H 1.87492   1.76833   -0.81782  
H -0.66618  2.48205   0.31829   
H -0.44791  2.17389   -1.42982  
H -0.70319  -1.32685  -4.65332  
H -2.11550  -3.47243  -3.49854  
C 3.73657   2.76053   3.03308   
C 2.85200   1.60806   3.03826   
O 3.23375   3.97154   3.04513   
O 4.92203   2.58847   3.11353   
C 2.22345   0.67062   3.43989   
C 1.82262   4.08605   2.84398   
C 1.59881   -0.63199  3.53463   
O 1.47581   -1.32505  4.63202   
O 1.45699   -1.15801  2.47813   
C 2.16560   -0.95770  5.83173   
H 1.60630   3.61106   1.89377   
H 1.24502   3.59727   3.61994   
H 1.64411   5.15299   2.77196   
H 3.23224   -1.13918  5.72365   
H 1.95475   0.06517   6.12179   
H 1.73995   -1.63496  6.56793   
34
image # 5 Energy = -1030.13427
C -0.27937  -0.37271  -0.43679  
C -0.69312  -1.26033  -1.50213  
O 1.02495   0.07669   -0.71896  
O -1.13447  0.74667   -0.30722  
O -0.17498  -0.96678  -2.69828  
C -1.47501  -2.36645  -1.51776  
C 1.06485   1.43683   -0.35346  
C -0.37249  1.90722   -0.55664  
C -0.72960  -1.84884  -3.53817  
C -1.49996  -2.75747  -2.87406  
H -0.41086  -0.99933  0.43910   
H -2.01980  -2.81699  -0.70170  
H 1.34484   1.44025   0.69487   
H 1.80956   1.94937   -0.97102  
H -0.73378  2.64509   0.16271   
H -0.52829  2.27121   -1.57551  
H -0.43406  -1.65177  -4.55297  
H -2.04622  -3.58843  -3.25801  
C 3.67988   2.66126   2.97819   
C 2.73086   1.55719   2.96047   
O 3.20625   3.90290   3.07398   
O 4.84453   2.45176   3.03503   
C 2.07870   0.66553   3.45011   
C 1.82334   4.07428   2.83321   
C 1.60419   -0.69768  3.53209   
O 1.43668   -1.39448  4.64903   
O 1.52690   -1.24470  2.47810   
C 2.17004   -1.09960  5.83170   
H 1.61873   3.66442   1.85110   
H 1.19603   3.55101   3.55990   
H 1.67169   5.14780   2.82825   
H 3.22417   -1.36731  5.70658   
H 2.06450   -0.05511  6.13942   
H 1.70700   -1.74423  6.57059   
34
image # 6 Energy = -1030.13045
C -0.28440  -0.22889  -0.45518  
C -0.67585  -1.20800  -1.45292  
O 0.99886   0.23364   -0.75242  
O -1.16623  0.87310   -0.40503  
O -0.06200  -1.08893  -2.62226  
C -1.49315  -2.28155  -1.39857  
C 1.02101   1.60961   -0.46326  
C -0.42826  2.04095   -0.68181  
C -0.52388  -2.07920  -3.39680  
C -1.40007  -2.84950  -2.69956  
H -0.39703  -0.78237  0.48368   
H -2.12035  -2.60899  -0.58334  
H 1.31614   1.69506   0.58957   
H 1.74350   2.10977   -1.11005  
H -0.79077  2.80124   0.00954   
H -0.59923  2.36269   -1.71866  
H -0.15603  -2.00286  -4.39270  
H -1.97038  -3.70501  -3.02695  
C 3.60200   2.57005   2.93696   
C 2.58628   1.51428   2.90709   
O 3.18810   3.81122   3.10843   
O 4.75777   2.29651   2.95661   
C 1.93091   0.65231   3.44192   
C 1.82105   4.06862   2.81991   
C 1.60668   -0.77124  3.53631   
O 1.40544   -1.44192  4.65002   
O 1.60376   -1.32800  2.48029   
C 2.17909   -1.22340  5.82899   
H 1.64873   3.73994   1.80052   
H 1.14670   3.52600   3.48011   
H 1.71407   5.14542   2.89061   
H 3.20172   -1.58397  5.68544   
H 2.17889   -0.17862  6.13964   
H 1.67964   -1.83251  6.58093   
34
image # 7 Energy = -1030.10962
C -0.30047  -0.09455  -0.50608  
C -0.67692  -1.15268  -1.42632  
O 0.98648   0.36683   -0.79198  
O -1.20383  0.98346   -0.50370  
O 0.07676   -1.19842  -2.51978  
C -1.50763  -2.20785  -1.30929  
C 0.97902   1.75413   -0.56375  
C -0.47538  2.15283   -0.79659  
C -0.34122  -2.27616  -3.19727  
C -1.31064  -2.93508  -2.51288  
H -0.42848  -0.59896  0.45177   
H -2.21744  -2.42465  -0.52556  
H 1.27874   1.88778   0.47947   
H 1.69253   2.24236   -1.23327  
H -0.85226  2.92238   -0.12135  
H -0.65237  2.44271   -1.83883  
H 0.10481   -2.30707  -4.17418  
H -1.88670  -3.79197  -2.79845  
C 3.49257   2.46940   2.88663   
C 2.43152   1.46775   2.82875   
O 3.16678   3.72475   3.14590   
O 4.63990   2.15112   2.89673   
C 1.78204   0.64111   3.41301   
C 1.83943   4.07064   2.81380   
C 1.58429   -0.80015  3.54833   
O 1.38666   -1.49952  4.65750   
O 1.70611   -1.36879  2.53190   
C 2.19229   -1.33501  5.82105   
H 1.73527   3.82943   1.76425   
H 1.09730   3.51047   3.37535   
H 1.78448   5.14460   2.94822   
H 3.17891   -1.77746  5.66800   
H 2.28314   -0.29243  6.12879   
H 1.65561   -1.89622  6.58285   
34
image # 8 Energy = -1030.10316
C -0.32770  0.03202   -0.55762  
C -0.65939  -1.10466  -1.41510  
O 0.96000   0.50475   -0.83361  
O -1.24663  1.09736   -0.61589  
O 0.20723   -1.32069  -2.39528  
C -1.52767  -2.13552  -1.25215  
C 0.93511   1.89965   -0.65304  
C -0.52542  2.27040   -0.91182  
C -0.15750  -2.47773  -2.98574  
C -1.21781  -3.01987  -2.31663  
H -0.43951  -0.39185  0.43903   
H -2.30187  -2.23084  -0.50966  
H 1.23934   2.10419   0.38152   
H 1.63302   2.36693   -1.34840  
H -0.90067  3.05494   -0.25658  
H -0.70334  2.53086   -1.96170  
H 0.36015   -2.63464  -3.90645  
H -1.79802  -3.88966  -2.57685  
C 3.39587   2.36525   2.86533   
C 2.25240   1.44916   2.78656   
O 3.13627   3.61687   3.20307   
O 4.49325   1.97124   2.82990   
C 1.62609   0.60317   3.39075   
C 1.87277   4.08622   2.77998   
C 1.56166   -0.84811  3.56420   
O 1.35903   -1.54247  4.66687   
O 1.76934   -1.43127  2.55482   
C 2.20383   -1.44418  5.81513   
H 1.86142   3.93928   1.70671   
H 1.05062   3.53126   3.22844   
H 1.86894   5.14284   3.00901   
H 3.14706   -1.97162  5.64794   
H 2.39317   -0.40756  6.10315   
H 1.64559   -1.94996  6.59965   
34
image # 9 Energy = -1030.09018
C -0.35147  0.14719   -0.64042  
C -0.63871  -1.07884  -1.41221  
O 0.93386   0.62952   -0.87808  
O -1.29081  1.19388   -0.73721  
O 0.34107   -1.44070  -2.24373  
C -1.52866  -2.06927  -1.21502  
C 0.89037   2.02606   -0.73161  
C -0.57053  2.37515   -1.01586  
C -0.01070  -2.63951  -2.74214  
C -1.13259  -3.09289  -2.13687  
H -0.47433  -0.20734  0.38340   
H -2.37247  -2.06722  -0.53661  
H 1.19370   2.28680   0.29328   
H 1.58076   2.47703   -1.44552  
H -0.95052  3.16991   -0.37417  
H -0.74228  2.62171   -2.06945  
H 0.58284   -2.91631  -3.60666  
H -1.71163  -3.97325  -2.36447  
C 3.23508   2.26739   2.86974   
C 2.04438   1.43430   2.75910   
O 3.08421   3.50762   3.28769   
O 4.33069   1.77939   2.79025   
C 1.46747   0.56610   3.36690   
C 1.93937   4.11209   2.72849   
C 1.52537   -0.87774  3.58633   
O 1.33648   -1.59303  4.68563   
O 1.80087   -1.47287  2.59373   
C 2.21934   -1.54376  5.80486   
H 2.08989   4.04545   1.65752   
H 1.02706   3.59652   3.01332   
H 1.98077   5.14697   3.04443   
H 3.11578   -2.14633  5.63221   
H 2.49002   -0.52011  6.06870   
H 1.64550   -1.99447  6.61692   
34
image # 10 Energy = -1030.06736
C -0.37314  0.23541   -0.74274  
C -0.60452  -1.06612  -1.41466  
O 0.91434   0.72752   -0.92234  
O -1.32854  1.26680   -0.85631  
O 0.45373   -1.53755  -2.08163  
C -1.52758  -2.03757  -1.19413  
C 0.85119   2.12677   -0.79259  
C -0.60771  2.46045   -1.09621  
C 0.10824   -2.76622  -2.53009  
C -1.07832  -3.14520  -1.98315  
H -0.52271  -0.06040  0.28677   
H -2.41818  -1.94986  -0.59146  
H 1.15291   2.42135   0.22543   
H 1.53825   2.56626   -1.51651  
H -0.99501  3.25876   -0.46029  
H -0.76861  2.71040   -2.14968  
H 0.74755   -3.12670  -3.32383  
H -1.64009  -4.03925  -2.19106  
C 3.06003   2.17396   2.92202   
C 1.81857   1.44075   2.75367   
O 2.98112   3.41078   3.40492   
O 4.10010   1.62730   2.83526   
C 1.31165   0.52166   3.35562   
C 2.05649   4.15511   2.64772   
C 1.47713   -0.90376  3.61282   
O 1.32931   -1.64699  4.69805   
O 1.77299   -1.49503  2.63856   
C 2.23833   -1.63158  5.79816   
H 2.43888   4.09788   1.63602   
H 1.06644   3.71656   2.71620   
H 2.12684   5.16762   3.01494   
H 3.09521   -2.28702  5.62594   
H 2.56337   -0.61823  6.03119   
H 1.65526   -2.03122  6.62778   
34
image # 11 Energy = -1030.03444
C -0.39010  0.28882   -0.85889  
C -0.58025  -1.07921  -1.41928  
O 0.90452   0.78877   -0.95939  
O -1.35898  1.31680   -0.95244  
O 0.52771   -1.61248  -1.95382  
C -1.51859  -2.02728  -1.18995  
C 0.82565   2.18722   -0.83027  
C -0.63599  2.51798   -1.14212  
C 0.17604   -2.84630  -2.38285  
C -1.04272  -3.18160  -1.88999  
H -0.57490  0.03082   0.17137   
H -2.44704  -1.89001  -0.64902  
H 1.12473   2.49215   0.17983   
H 1.50889   2.62376   -1.55894  
H -1.02745  3.31195   -0.50392  
H -0.78363  2.78798   -2.19171  
H 0.84564   -3.26122  -3.12396  
H -1.59700  -4.09003  -2.08756  
C 2.83537   2.16093   3.06155   
C 1.60141   1.46365   2.77114   
O 2.78066   3.38959   3.53524   
O 3.84407   1.53699   3.03687   
C 1.18858   0.47495   3.34351   
C 2.22280   4.20250   2.54198   
C 1.42152   -0.92306  3.63978   
O 1.36193   -1.70807  4.69253   
O 1.68448   -1.52620  2.64973   
C 2.26063   -1.69844  5.79039   
H 2.85490   4.05520   1.68007   
H 1.21044   3.85989   2.35212   
H 2.30108   5.21689   2.90026   
H 3.09941   -2.37852  5.63413   
H 2.60579   -0.68622  6.00430   
H 1.66446   -2.06475  6.62648   
34
image # 12 Energy = -1029.98983
C -0.40369  0.32147   -0.97573  
C -0.56538  -1.09854  -1.42799  
O 0.88905   0.81545   -0.98590  
O -1.38545  1.34619   -1.01564  
O 0.56549   -1.66811  -1.87235  
C -1.52128  -2.03481  -1.19013  
C 0.80390   2.21295   -0.85608  
C -0.65335  2.55272   -1.15539  
C 0.21212   -2.89705  -2.30474  
C -1.03109  -3.21674  -1.85443  
H -0.62599  0.08084   0.05198   
H -2.46439  -1.87265  -0.69826  
H 1.10820   2.51543   0.15662   
H 1.48736   2.65346   -1.58210  
H -1.04764  3.34141   -0.50786  
H -0.79757  2.85216   -2.19983  
H 0.89356   -3.34315  -3.01332  
H -1.57474  -4.12593  -2.04642  
C 2.57469   2.21223   3.25841   
C 1.46435   1.46827   2.76290   
O 2.50183   3.49362   3.61883   
O 3.54479   1.57666   3.43294   
C 1.14007   0.42595   3.30002   
C 2.40026   4.23576   2.44085   
C 1.40793   -0.95148  3.64164   
O 1.45173   -1.77254  4.65413   
O 1.53237   -1.57384  2.63958   
C 2.29332   -1.73992  5.78808   
H 3.22820   3.94440   1.81207   
H 1.46773   3.95630   1.97988   
H 2.48100   5.26878   2.73584   
H 3.12930   -2.42740  5.66532   
H 2.62583   -0.72883  5.99534   
H 1.66212   -2.09691  6.60771   
34
image # 13 Energy = -1029.94690
C -0.42285  0.33856   -1.06122  
C -0.56418  -1.11436  -1.43424  
O 0.87468   0.82727   -1.00812  
O -1.40658  1.36966   -1.05395  
O 0.58256   -1.69932  -1.83384  
C -1.52036  -2.05245  -1.20694  
C 0.79002   2.22453   -0.86744  
C -0.66935  2.57759   -1.15049  
C 0.22371   -2.92907  -2.27225  
C -1.03069  -3.22963  -1.84603  
H -0.67380  0.10825   -0.05444  
H -2.48380  -1.87483  -0.73940  
H 1.09646   2.52031   0.13991   
H 1.47200   2.66649   -1.59536  
H -1.05755  3.35733   -0.48823  
H -0.80956  2.90575   -2.18450  
H 0.91406   -3.39183  -2.95671  
H -1.56564  -4.15417  -2.04240  
C 2.32612   2.33388   3.42091   
C 1.52318   1.41489   2.67661   
O 2.28116   3.63278   3.59452   
O 3.18145   1.72865   3.96298   
C 1.22893   0.35787   3.21804   
C 2.53289   4.24983   2.37029   
C 1.47220   -0.99151  3.61277   
O 1.62879   -1.82982  4.59018   
O 1.19061   -1.65948  2.65641   
C 2.33664   -1.76935  5.79719   
H 3.44315   3.85075   1.94693   
H 1.70360   3.98102   1.72942   
H 2.61891   5.30017   2.58873   
H 3.18217   -2.44844  5.72512   
H 2.64373   -0.75037  6.01101   
H 1.65041   -2.12630  6.56598   
34
image # 14 Energy = -1029.92152
C -0.43467  0.35489   -1.13433  
C -0.55540  -1.13376  -1.42661  
O 0.85920   0.83328   -1.01841  
O -1.42152  1.39372   -1.07798  
O 0.59124   -1.72441  -1.80151  
C -1.52456  -2.06119  -1.20559  
C 0.78342   2.23001   -0.87250  
C -0.67646  2.59690   -1.13403  
C 0.23221   -2.94364  -2.25082  
C -1.02834  -3.25047  -1.84821  
H -0.72302  0.12904   -0.14179  
H -2.49375  -1.88552  -0.77398  
H 1.09730   2.52821   0.13251   
H 1.46320   2.67241   -1.60117  
H -1.05915  3.36885   -0.45987  
H -0.81530  2.95049   -2.16069  
H 0.92701   -3.42527  -2.92270  
H -1.55683  -4.17073  -2.04810  
C 2.17657   2.39711   3.48057   
C 1.69885   1.38151   2.60088   
O 2.19760   3.71169   3.54365   
O 2.73551   1.87750   4.37656   
C 1.56433   0.24892   3.03055   
C 2.59397   4.25760   2.32479   
C 1.46004   -1.05995  3.57497   
O 1.82721   -1.87803  4.49902   
O 0.73280   -1.65483  2.83371   
C 2.37330   -1.78162  5.78606   
H 3.52944   3.81463   2.00741   
H 1.81609   4.00062   1.62277   
H 2.69640   5.31700   2.51415   
H 3.22500   -2.45869  5.77986   
H 2.65907   -0.76359  6.01370   
H 1.63174   -2.14539  6.50314   
34
image # 15 Energy = -1029.92659
C -0.44534  0.36607   -1.16734  
C -0.54703  -1.14421  -1.39255  
O 0.84369   0.83227   -1.01477  
O -1.43075  1.41773   -1.08626  
O 0.60039   -1.73643  -1.77899  
C -1.51618  -2.07916  -1.20003  
C 0.78256   2.23027   -0.87016  
C -0.67242  2.61287   -1.12070  
C 0.24067   -2.95147  -2.24221  
C -1.02066  -3.25520  -1.84690  
H -0.78247  0.14384   -0.20927  
H -2.50575  -1.90337  -0.79693  
H 1.10391   2.52989   0.13292   
H 1.46617   2.66793   -1.59869  
H -1.05253  3.38352   -0.44090  
H -0.80858  2.97846   -2.14120  
H 0.93810   -3.43926  -2.89474  
H -1.54264  -4.18475  -2.05433  
C 2.16912   2.39693   3.51003   
C 1.70847   1.36355   2.61672   
O 2.18759   3.71547   3.53256   
O 2.68155   1.89954   4.45863   
C 1.64175   0.21381   2.98541   
C 2.60471   4.26275   2.31017   
C 1.40288   -1.08170  3.54833   
O 1.87980   -1.87097  4.47551   
O 0.65012   -1.66866  2.85320   
C 2.37857   -1.77245  5.77863   
H 3.55169   3.82062   2.00180   
H 1.83148   4.02287   1.59299   
H 2.71142   5.32445   2.49700   
H 3.22918   -2.45614  5.78667   
H 2.66776   -0.75943  6.02200   
H 1.62264   -2.14552  6.47236   
34
image # 16 Energy = -1029.93749
C -0.42489  0.31084   -0.89917  
C -0.45221  -1.22078  -1.03849  
O 0.86612   0.81908   -0.93060  
O -1.36788  1.35436   -0.63753  
O 0.60288   -1.74309  -1.71832  
C -1.50326  -2.07954  -1.10264  
C 0.78077   2.22471   -0.84959  
C -0.70138  2.56363   -1.01684  
C 0.21830   -2.94088  -2.21829  
C -1.04107  -3.23721  -1.81161  
H -0.75618  0.31261   -1.90890  
H -2.48833  -1.87296  -0.70971  
H 1.13647   2.52318   0.14030   
H 1.42251   2.67496   -1.60858  
H -1.04747  3.37385   -0.37089  
H -0.91375  2.87617   -2.04829  
H 0.90495   -3.41830  -2.89555  
H -1.58223  -4.14991  -2.03245  
C 2.13224   2.39731   3.49240   
C 1.72235   1.37064   2.56567   
O 2.18494   3.71341   3.53201   
O 2.56615   1.90337   4.46498   
C 1.70011   0.22458   2.93946   
C 2.62422   4.25158   2.31861   
C 1.41976   -1.01176  3.60737   
O 1.92973   -1.85684  4.45413   
O 0.60274   -1.57503  2.94297   
C 2.37724   -1.77987  5.77777   
H 3.56685   3.80638   2.02723   
H 1.85404   4.01635   1.59964   
H 2.73665   5.31576   2.50419   
H 3.23087   -2.45670  5.80524   
H 2.65598   -0.76574  6.02579   
H 1.60321   -2.15279  6.44505   
34
image # 17 Energy = -1029.96343
C -0.41088  0.30852   -0.95001  
C -0.43917  -1.21988  -1.00612  
O 0.88132   0.81723   -0.91904  
O -1.35034  1.32509   -0.62389  
O 0.60939   -1.74252  -1.69534  
C -1.49287  -2.07083  -1.06564  
C 0.77985   2.22246   -0.84437  
C -0.70748  2.54414   -1.01232  
C 0.21267   -2.93152  -2.19986  
C -1.04633  -3.21935  -1.78698  
H -0.70387  0.31423   -1.98255  
H -2.47106  -1.85413  -0.65691  
H 1.12504   2.51102   0.15203   
H 1.41664   2.68280   -1.60161  
H -1.05901  3.35030   -0.36523  
H -0.92733  2.85173   -2.04575  
H 0.89729   -3.39724  -2.89757  
H -1.59738  -4.12988  -2.00953  
C 1.98160   2.40986   3.44614   
C 1.93245   1.33517   2.48764   
O 2.15270   3.70394   3.51222   
O 1.78437   1.98711   4.53337   
C 1.96251   0.16887   2.83705   
C 2.68344   4.21229   2.33280   
C 1.50331   -0.97453  3.58690   
O 2.02115   -1.87128  4.37858   
O 0.43857   -1.29207  3.21711   
C 2.39138   -1.79046  5.72826   
H 3.63535   3.72563   2.14673   
H 1.97773   3.96171   1.55893   
H 2.80908   5.27232   2.50290   
H 3.24886   -2.45988  5.80631   
H 2.66254   -0.77146  5.98294   
H 1.59785   -2.15131  6.38483   
34
image # 18 Energy = -1030.00691
C -0.39387  0.31151   -0.99628  
C -0.42003  -1.20252  -0.96288  
O 0.89806   0.82523   -0.90878  
O -1.32960  1.30326   -0.61311  
O 0.62614   -1.73656  -1.65696  
C -1.48092  -2.05186  -1.01122  
C 0.77949   2.23015   -0.83764  
C -0.71237  2.53202   -1.01266  
C 0.22216   -2.91818  -2.16861  
C -1.04232  -3.20505  -1.75373  
H -0.65406  0.31234   -2.04247  
H -2.44973  -1.82986  -0.60501  
H 1.10609   2.51232   0.16498   
H 1.41291   2.69996   -1.59335  
H -1.07238  3.33289   -0.36451  
H -0.93851  2.83058   -2.04781  
H 0.90108   -3.36453  -2.87811  
H -1.60083  -4.09845  -1.96780  
C 1.70479   2.42601   3.38209   
C 2.02897   1.34142   2.47731   
O 1.98836   3.71138   3.42988   
O 1.10300   2.08533   4.33489   
C 2.07022   0.17428   2.80781   
C 2.78576   4.11217   2.37213   
C 1.55814   -0.93874  3.58892   
O 2.12252   -1.87569  4.30245   
O 0.38198   -1.09387  3.43936   
C 2.40784   -1.78323  5.68761   
H 3.72494   3.57552   2.43547   
H 2.29918   3.80779   1.45577   
H 2.91778   5.17440   2.49114   
H 3.26776   -2.43956  5.80629   
H 2.66171   -0.75711  5.94082   
H 1.59673   -2.13471  6.32750   
34
image # 19 Energy = -1030.04057
C -0.36259  0.33292   -1.04500  
C -0.39672  -1.16868  -0.91298  
O 0.92188   0.85625   -0.90910  
O -1.30279  1.29378   -0.62465  
O 0.65754   -1.72213  -1.57599  
C -1.45161  -2.01727  -0.95423  
C 0.78368   2.26096   -0.84327  
C -0.71315  2.53457   -1.02656  
C 0.24705   -2.89846  -2.09688  
C -1.01671  -3.17060  -1.68256  
H -0.59350  0.31686   -2.10994  
H -2.43449  -1.78011  -0.56109  
H 1.09831   2.55304   0.16336   
H 1.41136   2.74088   -1.59770  
H -1.09195  3.32374   -0.37837  
H -0.94711  2.81995   -2.06553  
H 0.93497   -3.33805  -2.80411  
H -1.59016  -4.06369  -1.89114  
C 1.43114   2.47248   3.25527   
C 1.94645   1.34753   2.47504   
O 1.76731   3.74217   3.19793   
O 0.70005   2.20622   4.14865   
C 2.07335   0.18512   2.78598   
C 2.87798   3.95358   2.38196   
C 1.54464   -0.89696  3.61908   
O 2.17993   -1.86983  4.24479   
O 0.37394   -0.90712  3.68949   
C 2.41680   -1.79033  5.64865   
H 3.71205   3.40315   2.80119   
H 2.71750   3.52811   1.40254   
H 3.05018   5.02043   2.41856   
H 3.27214   -2.44964  5.78206   
H 2.67115   -0.76664  5.90973   
H 1.59572   -2.12855  6.28490   
34
image # 20 Energy = -1030.06393
C -0.31978  0.37057   -1.11423  
C -0.36434  -1.10483  -0.85273  
O 0.95719   0.91384   -0.93475  
O -1.26845  1.29957   -0.66413  
O 0.70781   -1.69422  -1.44127  
C -1.42254  -1.95026  -0.87395  
C 0.79284   2.31747   -0.87464  
C -0.71224  2.55013   -1.06899  
C 0.30769   -2.87795  -1.94844  
C -0.96981  -3.13624  -1.55043  
H -0.51920  0.31796   -2.18532  
H -2.41731  -1.70258  -0.53643  
H 1.09709   2.62271   0.12786   
H 1.41308   2.80727   -1.63019  
H -1.12026  3.32228   -0.41872  
H -0.95383  2.81813   -2.11017  
H 1.01046   -3.33048  -2.62521  
H -1.55241  -4.01965  -1.74529  
C 1.20854   2.50638   3.11693   
C 1.77679   1.33147   2.43559   
O 1.67648   3.73408   2.96868   
O 0.36241   2.35162   3.93550   
C 2.01579   0.18136   2.73095   
C 2.94800   3.76504   2.39113   
C 1.52761   -0.83807  3.67305   
O 2.17825   -1.86811  4.18623   
O 0.38520   -0.68697  3.97326   
C 2.41823   -1.82375  5.59998   
H 3.62107   3.19985   3.03113   
H 2.96939   3.25412   1.42850   
H 3.20598   4.81239   2.36993   
H 3.25162   -2.50795  5.72231   
H 2.70970   -0.80898  5.87868   
H 1.59202   -2.13005  6.25338   
34
image # 21 Energy = -1030.07394
C -0.26907  0.42220   -1.17999  
C -0.32912  -1.01022  -0.78956  
O 0.99335   0.99705   -0.97974  
O -1.23456  1.31988   -0.73087  
O 0.77415   -1.64160  -1.26227  
C -1.37912  -1.86148  -0.78143  
C 0.79280   2.39760   -0.93172  
C -0.71785  2.58191   -1.13712  
C 0.39035   -2.85817  -1.70959  
C -0.89549  -3.08865  -1.35334  
H -0.43916  0.31769   -2.26244  
H -2.40150  -1.60174  -0.53395  
H 1.08005   2.72553   0.06953   
H 1.40814   2.89683   -1.68617  
H -1.16260  3.33401   -0.49027  
H -0.96355  2.82223   -2.18390  
H 1.13122   -3.34591  -2.32431  
H -1.48413  -3.97260  -1.52197  
C 1.03308   2.50289   2.96750   
C 1.58847   1.27894   2.34696   
O 1.63910   3.67065   2.81380   
O 0.09479   2.45226   3.70615   
C 1.91694   0.15313   2.63889   
C 2.97776   3.56622   2.38923   
C 1.49824   -0.77464  3.71814   
O 2.12444   -1.88143  4.12973   
O 0.51872   -0.42771  4.25334   
C 2.40790   -1.87705  5.55276   
H 3.52191   2.98256   3.12788   
H 3.06787   3.03458   1.44370   
H 3.31002   4.59655   2.35825   
H 3.19624   -2.61584  5.63745   
H 2.77817   -0.88996  5.84218   
H 1.58169   -2.13124  6.22530   
34
image # 22 Energy = -1030.07758
C -0.21525  0.47911   -1.23208  
C -0.28426  -0.91118  -0.73584  
O 1.03200   1.09150   -1.02724  
O -1.20431  1.34775   -0.80125  
O 0.84058   -1.56316  -1.08509  
C -1.33531  -1.76004  -0.69377  
C 0.78588   2.48760   -0.99494  
C -0.72864  2.61721   -1.21525  
C 0.48884   -2.82130  -1.42993  
C -0.81272  -3.02752  -1.11593  
H -0.35885  0.30664   -2.31121  
H -2.37439  -1.50822  -0.55394  
H 1.04217   2.84540   0.00171   
H 1.39892   2.99303   -1.74684  
H -1.21231  3.35010   -0.57456  
H -0.96987  2.82807   -2.26582  
H 1.26024   -3.35456  -1.95228  
H -1.40175  -3.91684  -1.26057  
C 0.89454   2.45721   2.83935   
C 1.41757   1.20560   2.23554   
O 1.60903   3.56850   2.72167   
O -0.08657  2.49253   3.51254   
C 1.81947   0.09140   2.52888   
C 2.95809   3.39609   2.37161   
C 1.51620   -0.73699  3.72578   
O 2.03982   -1.90518  4.09448   
O 0.72984   -0.18907  4.42640   
C 2.38674   -1.93229  5.50928   
H 3.42607   2.77980   3.13775   
H 3.07608   2.86219   1.42522   
H 3.33435   4.41182   2.35046   
H 3.11040   -2.73665  5.55365   
H 2.85918   -0.98816  5.80784   
H 1.56280   -2.12394  6.20522   
34
image # 23 Energy = -1030.08325
C -0.15380  0.54050   -1.27633  
C -0.23099  -0.80327  -0.69210  
O 1.07047   1.19897   -1.06991  
O -1.17465  1.37857   -0.86919  
O 0.91786   -1.46487  -0.93251  
C -1.27766  -1.65217  -0.60788  
C 0.77316   2.58653   -1.05650  
C -0.74203  2.65571   -1.29489  
C 0.58926   -2.76733  -1.09437  
C -0.72555  -2.95050  -0.85148  
H -0.26636  0.29942   -2.34513  
H -2.32736  -1.42132  -0.57813  
H 0.99088   2.98508   -0.06730  
H 1.38216   3.09944   -1.80661  
H -1.26694  3.37283   -0.66995  
H -0.97254  2.83225   -2.35298  
H 1.39273   -3.34866  -1.50818  
H -1.30320  -3.84530  -0.95727  
C 0.77200   2.37868   2.71375   
C 1.25889   1.09886   2.12263   
O 1.56172   3.44395   2.64944   
O -0.24054  2.47617   3.33600   
C 1.71057   0.00823   2.42347   
C 2.91636   3.23157   2.33226   
C 1.54547   -0.71217  3.70867   
O 1.96292   -1.92054  4.06056   
O 0.99182   -0.00474  4.50251   
C 2.36029   -1.98674  5.46732   
H 3.33586   2.58893   3.10218   
H 3.04457   2.71094   1.38189   
H 3.31736   4.23927   2.32792   
H 2.99971   -2.86025  5.48208   
H 2.93787   -1.10250  5.76510   
H 1.53167   -2.10376  6.17067   
34
image # 24 Energy = -1030.08465
C -0.08939  0.59954   -1.29843  
C -0.16092  -0.70921  -0.65214  
O 1.11076   1.30573   -1.10373  
O -1.14470  1.40378   -0.92633  
O 0.99226   -1.36406  -0.82451  
C -1.20836  -1.55943  -0.53083  
C 0.75611   2.68225   -1.11058  
C -0.75405  2.68782   -1.36698  
C 0.69752   -2.68360  -0.75059  
C -0.64881  -2.84567  -0.58606  
H -0.17148  0.28836   -2.34881  
H -2.26497  -1.35280  -0.59074  
H 0.93207   3.12088   -0.12963  
H 1.36238   3.20322   -1.85504  
H -1.32139  3.39278   -0.76506  
H -0.96647  2.82966   -2.43049  
H 1.49653   -3.29705  -1.05048  
H -1.20645  -3.76159  -0.64769  
C 0.66587   2.28108   2.60239   
C 1.12014   0.98790   2.02354   
O 1.50393   3.31131   2.59067   
O -0.35245  2.43139   3.17268   
C 1.61155   -0.09982  2.33587   
C 2.85651   3.08415   2.27864   
C 1.58458   -0.70254  3.67295   
O 1.91025   -1.93628  4.02929   
O 1.22018   0.10247   4.47429   
C 2.33391   -2.03248  5.41977   
H 3.25073   2.41962   3.03998   
H 2.99770   2.57753   1.32784   
H 3.27841   4.08339   2.29397   
H 2.88597   -2.96203  5.42515   
H 2.99926   -1.21265  5.71510   
H 1.49948   -2.07439  6.12193   
34
image # 25 Energy = -1030.07883
C -0.01318  0.65601   -1.29986  
C -0.06830  -0.60611  -0.57451  
O 1.15279   1.42939   -1.12898  
O -1.11161  1.43207   -0.97956  
O 1.08478   -1.27793  -0.75487  
C -1.13410  -1.46255  -0.44051  
C 0.73454   2.78603   -1.15683  
C -0.76558  2.71716   -1.43766  
C 0.79114   -2.53243  -0.35553  
C -0.55979  -2.73282  -0.31492  
H -0.05882  0.28281   -2.32982  
H -2.18129  -1.28713  -0.57743  
H 0.86461   3.26654   -0.19041  
H 1.33593   3.31513   -1.89771  
H -1.37636  3.41562   -0.87299  
H -0.95281  2.82170   -2.50965  
H 1.59909   -3.20375  -0.57616  
H -1.10582  -3.65388  -0.30365  
C 0.57823   2.16002   2.47388   
C 0.99850   0.84494   1.91871   
O 1.43217   3.17372   2.52498   
O -0.48218  2.36212   3.00362   
C 1.51418   -0.21861  2.24955   
C 2.77912   2.93404   2.21182   
C 1.62357   -0.71732  3.61145   
O 1.87842   -1.94791  3.98519   
O 1.38903   0.15825   4.40376   
C 2.30829   -2.08160  5.35740   
H 3.16777   2.24947   2.95801   
H 2.93947   2.44245   1.25436   
H 3.22712   3.92421   2.24444   
H 2.77052   -3.06347  5.36948   
H 3.05168   -1.33316  5.64687   
H 1.47273   -2.04615  6.05829   
34
image # 26 Energy = -1030.06548
C 0.05906   0.71730   -1.29265  
C 0.03353   -0.49365  -0.46050  
O 1.18307   1.54385   -1.13510  
O -1.08037  1.45444   -1.02007  
O 1.16903   -1.20706  -0.67874  
C -1.05092  -1.38270  -0.34025  
C 0.71315   2.88349   -1.18921  
C -0.77278  2.74570   -1.50315  
C 0.90610   -2.37686  -0.00394  
C -0.48320  -2.60906  -0.07033  
H 0.05135   0.29483   -2.30344  
H -2.10395  -1.21612  -0.53046  
H 0.80654   3.39508   -0.23299  
H 1.30495   3.42022   -1.93073  
H -1.42247  3.44036   -0.97736  
H -0.93664  2.80898   -2.58189  
H 1.68003   -3.08514  -0.15854  
H -1.01875  -3.55010  0.02511   
C 0.47584   2.04997   2.36562   
C 0.89760   0.71109   1.78566   
O 1.35674   3.05059   2.44759   
O -0.59312  2.26484   2.82033   
C 1.43354   -0.35722  2.16873   
C 2.71833   2.79528   2.13878   
C 1.63885   -0.72726  3.55314   
O 1.86905   -1.97111  3.92462   
O 1.49619   0.16517   4.33883   
C 2.29049   -2.13723  5.29227   
H 3.10229   2.10058   2.87899   
H 2.87948   2.32577   1.17327   
H 3.17602   3.77712   2.19028   